 Flat Integration
 New Mode for Coulomb Integral
 Consistent 3/8+Simpson combinations
 Extension of core to zero
 LDM version in phi
 Fifth-order quadrature in outwin


            ---------
:ITE012: 12. ITERATION
            ---------

:NATO :    2 INDEPENDENT AND    4 TOTAL ATOMS IN UNITCELL
       SUBSTANCE: FeSe structure                                              

       LATTICE                      = P   
:POT  : POTENTIAL OPTION EX_LDA EC_LDA VX_LDA VC_LDA
:LAT  : LATTICE CONSTANTS=  7.12143  7.12143 10.43015    1.571    1.571    1.571
:VOL  : UNIT CELL VOLUME =     528.96326
       MODE OF CALCULATION IS       = RELA
       NON-SPINPOLARIZED CALCULATION
:IFFT  : FFT-parameters:   60   60   80 Factor: 2.00
       ATOMNUMBER=  1 Fe  2+     VCOUL-ZERO =  0.30835E+00
:EFG001:                        EFG         =     0.24473   *10**21  V / m**2
                               V20  TOT/SRF=     0.21195    -0.02001
                               V22  TOT/SRF=     0.00000     0.00000
                               V22M TOT/SRF=     0.00000     0.00000
                               V21  TOT/SRF=     0.00000     0.00000
                               V21M TOT/SRF=     0.00000     0.00000

             -0.12237    0.00000    0.00000       -0.12237    0.00000    0.00000
              0.00000   -0.12237    0.00000        0.00000   -0.12237    0.00000
              0.00000    0.00000    0.24473        0.00000    0.00000    0.24473

         MAIN DIRECTIONS OF THE EFG   1.0000  0.0000  0.0000
                                      0.0000  1.0000  0.0000
                                      0.0000  0.0000  1.0000
:ANG001:  ANGLE WITH OLD X-AXIS =         0.0

:ETA001:                         ASYMM. ETA =     0.00000


       ATOMNUMBER=  2 Se  2-     VCOUL-ZERO =  0.18302E+00
:EFG002:                        EFG         =    -5.43744   *10**21  V / m**2
                               V20  TOT/SRF=    -4.70896     0.00985
                               V22  TOT/SRF=     0.00000     0.00000
                               V22M TOT/SRF=     0.00000     0.00000
                               V21  TOT/SRF=     0.00000     0.00000
                               V21M TOT/SRF=     0.00000     0.00000

              2.71872    0.00000    0.00000        2.71872    0.00000    0.00000
              0.00000    2.71872    0.00000        0.00000    2.71872    0.00000
              0.00000    0.00000   -5.43744        0.00000    0.00000   -5.43744

         MAIN DIRECTIONS OF THE EFG   1.0000  0.0000  0.0000
                                      0.0000  1.0000  0.0000
                                      0.0000  0.0000  1.0000
:ANG002:  ANGLE WITH OLD X-AXIS =         0.0

:ETA002:                         ASYMM. ETA =     0.00000


     HELLMANN-FEYNMAN-FORCE IN mRy/a.u. = |F|  Fx       Fy             Fz
:FHF001:   1.ATOM      0.000000000000      0.000000000000      0.000000000000      0.000000000000

     HELLMANN-FEYNMAN-FORCE IN mRy/a.u. = |F|  Fx       Fy             Fz
:FHF002:   2.ATOM   1293.633936103879      0.000000000000      0.000000000000  -1293.633936103879

:FIT001: LUSE= 13 SIGMA OF V-XC FIT FOR ATOM  1  0.3055759E-02
:FIT001: LUSE= 13 SIGMA OF V-XC FIT FOR ATOM  1  0.3055759E-02
:FIT002: LUSE= 13 SIGMA OF V-XC FIT FOR ATOM  2  0.6451839E-03
:FIT002: LUSE= 13 SIGMA OF V-XC FIT FOR ATOM  2  0.6451839E-03
:DEN  : DENSITY INTEGRAL  =         -6214.28051788   (Ry)
       ELS_POTENTIAL_AT Z=0 and Z=0.5:  -0.58493   0.59182
       ELS_POTENTIAL_AT Y=0 and Y=0.5:   0.00000   0.00000
:VZERO:v0,v0c,v0x  -1.34076  -0.58493  -0.75583 v5,v5c,v5x   0.06975   0.59182  -0.52206
:VZERY:v0,v0c,v0x  -0.69846   0.00000  -0.69846 v5,v5c,v5x  -0.69846   0.00000  -0.69846
:VZERX:v0,v0c,v0x   0.02158   0.71519  -0.69361 v5,v5c,v5x   0.02158   0.71519  -0.69361
