
:LABEL1: Calculations in /mnt/wk19/haule/SummerSchool2018/FeSe/FeSe
:LABEL2: on rupc02 at Wed May 30 02:06:49 EDT 2018
:LABEL3: using WIEN2k_16.1 (Release 12/12/2016) in /opt/apps/ompi/wien/wien2k_16
:LABEL4: using the command: run_lapw
 Flat Integration
 New Mode for Coulomb Integral
 Consistent 3/8+Simpson combinations
 Extension of core to zero
 LDM version in phi
 Fifth-order quadrature in outwin


            ---------
:ITE001:  1. ITERATION
            ---------

:NATO :    2 INDEPENDENT AND    4 TOTAL ATOMS IN UNITCELL
       SUBSTANCE: FeSe structure                                              

       LATTICE                      = P   
:POT  : POTENTIAL OPTION EX_LDA EC_LDA VX_LDA VC_LDA
:LAT  : LATTICE CONSTANTS=  7.12143  7.12143 10.43015    1.571    1.571    1.571
:VOL  : UNIT CELL VOLUME =     528.96326
       MODE OF CALCULATION IS       = RELA
       NON-SPINPOLARIZED CALCULATION
:IFFT  : FFT-parameters:   60   60   80 Factor: 2.00
       ATOMNUMBER=  1 Fe  2+     VCOUL-ZERO =  0.25179E+00
:EFG001:                        EFG         =    -0.08338   *10**21  V / m**2
                               V20  TOT/SRF=    -0.07221    -0.10627
                               V22  TOT/SRF=     0.00000     0.00000
                               V22M TOT/SRF=     0.00000     0.00000
                               V21  TOT/SRF=     0.00000     0.00000
                               V21M TOT/SRF=     0.00000     0.00000

              0.04169    0.00000    0.00000        0.04169    0.00000    0.00000
              0.00000    0.04169    0.00000        0.00000    0.04169    0.00000
              0.00000    0.00000   -0.08338        0.00000    0.00000   -0.08338

         MAIN DIRECTIONS OF THE EFG   1.0000  0.0000  0.0000
                                      0.0000  1.0000  0.0000
                                      0.0000  0.0000  1.0000
:ANG001:  ANGLE WITH OLD X-AXIS =         0.0

:ETA001:                         ASYMM. ETA =     0.00000


       ATOMNUMBER=  2 Se  2-     VCOUL-ZERO =  0.19885E+00
:EFG002:                        EFG         =     0.03293   *10**21  V / m**2
                               V20  TOT/SRF=     0.02852     0.04421
                               V22  TOT/SRF=     0.00000     0.00000
                               V22M TOT/SRF=     0.00000     0.00000
                               V21  TOT/SRF=     0.00000     0.00000
                               V21M TOT/SRF=     0.00000     0.00000

             -0.01647    0.00000    0.00000       -0.01647    0.00000    0.00000
              0.00000   -0.01647    0.00000        0.00000   -0.01647    0.00000
              0.00000    0.00000    0.03293        0.00000    0.00000    0.03293

         MAIN DIRECTIONS OF THE EFG   1.0000  0.0000  0.0000
                                      0.0000  1.0000  0.0000
                                      0.0000  0.0000  1.0000
:ANG002:  ANGLE WITH OLD X-AXIS =         0.0

:ETA002:                         ASYMM. ETA =     0.00000


     HELLMANN-FEYNMAN-FORCE IN mRy/a.u. = |F|  Fx       Fy             Fz
:FHF001:   1.ATOM      0.000000000000      0.000000000000      0.000000000000      0.000000000000

     HELLMANN-FEYNMAN-FORCE IN mRy/a.u. = |F|  Fx       Fy             Fz
:FHF002:   2.ATOM   1637.184672916507      0.000000000000      0.000000000000  -1637.184672916507

:FIT001: LUSE= 13 SIGMA OF V-XC FIT FOR ATOM  1  0.2356927E-02
:FIT001: LUSE= 13 SIGMA OF V-XC FIT FOR ATOM  1  0.2356927E-02
:FIT002: LUSE= 13 SIGMA OF V-XC FIT FOR ATOM  2  0.2530218E-03
:FIT002: LUSE= 13 SIGMA OF V-XC FIT FOR ATOM  2  0.2530218E-03
:DEN  : DENSITY INTEGRAL  =         -6222.22341841   (Ry)
       ELS_POTENTIAL_AT Z=0 and Z=0.5:  -0.76339   0.70044
       ELS_POTENTIAL_AT Y=0 and Y=0.5:   0.00000   0.00000
:VZERO:v0,v0c,v0x  -1.63282  -0.76339  -0.86944 v5,v5c,v5x   0.16400   0.70044  -0.53644
:VZERY:v0,v0c,v0x  -0.73083   0.00000  -0.73083 v5,v5c,v5x  -0.73083   0.00000  -0.73083
:VZERX:v0,v0c,v0x   0.08477   0.75265  -0.66788 v5,v5c,v5x   0.08477   0.75265  -0.66788
:LMAX-WF:   10   Non-Spherical LMAX:   4

          ATOMIC SPHERE DEPENDENT PARAMETERS FOR ATOM  Fe  2+    
:e__0001: OVERALL ENERGY PARAMETER IS    0.3000
          OVERALL BASIS SET ON ATOM IS LAPW
:E1_0001: E( 1)=    0.3000
             APW+lo
:E1_0001: E( 1)=   -3.4613   E(BOTTOM)=   -3.515   E(TOP)=   -3.407  1  2   149
             LOCAL ORBITAL
:E2_0001: E( 2)=    0.2963   E(BOTTOM)=   -0.001   E(TOP)=    0.593  0  1   132
             APW+lo
:E0_0001: E( 0)=    0.3000
             APW+lo

          ATOMIC SPHERE DEPENDENT PARAMETERS FOR ATOM  Se  2-    
:e__0002: OVERALL ENERGY PARAMETER IS    0.3000
          OVERALL BASIS SET ON ATOM IS LAPW
:E2_0002: E( 2)=    0.3000
             APW+lo
:E2_0002: E( 2)=   -3.1367   E(BOTTOM)=   -3.161   E(TOP)=   -3.112  0  1   145
             LOCAL ORBITAL
:E0_0002: E( 0)=    0.7000
             APW+lo
:E0_0002: E( 0)=   -0.3409   E(BOTTOM)=   -1.474   E(TOP)=    0.792  3  4   211
             LOCAL ORBITAL
:E1_0002: E( 1)=    0.3000
             APW+lo

       K=   0.08333   0.08333   0.12500            1
:RKM  : MATRIX SIZE   343LOs:  54  RKM= 6.96  WEIGHT= 8.00  PGR:    
       EIGENVALUES ARE:
:EIG00001:      -3.4564049   -3.4556341   -3.4473895   -3.4470108   -3.4466131
:EIG00006:      -3.4449866   -3.1310513   -3.1310366   -3.1309397   -3.1308883
:EIG00011:      -3.1307091   -3.1304807   -3.1303219   -3.1300989   -3.1294145
:EIG00016:      -3.1293650   -0.6813416   -0.6011362   -0.0388945    0.0811295
:EIG00021:       0.0985842    0.1065268    0.1375454    0.1523486    0.1988238
:EIG00026:       0.3347703    0.3393026    0.3563213    0.3902186    0.3913739
:EIG00031:       0.4435343    0.4540813    0.5251150    0.5338943    0.6238398
:EIG00036:       0.7638700    0.8244654    0.8768926    0.8964787    0.9309383
:EIG00041:       1.1825249    1.2074742    1.2894525    1.3018440    1.3387129
:EIG00046:       1.3724565    1.4323152    1.4944136    1.5029363    1.5186209
 
:EIG00051:       1.5833499    1.6286552    1.7508723    1.7755264    1.8135880
:EIG00056:       1.9049761    1.9724228
       ********************************************************

:KPT   :      NUMBER OF K-POINTS:    12
:GAP (global)   :    0.0    Ry =     0.0   eV (metal)
         Bandranges (emin - emax) and occupancy:
:BAN00022:  22    0.093101    0.131821  2.00000000
:BAN00023:  23    0.117927    0.154952  2.00000000
:BAN00024:  24    0.137058    0.169383  2.00000000
:BAN00025:  25    0.198761    0.261699  2.00000000
:BAN00026:  26    0.254884    0.337171  2.00000000
:BAN00027:  27    0.256393    0.342685  2.00000000
:BAN00028:  28    0.262998    0.364736  2.00000000
:BAN00029:  29    0.333798    0.391065  1.89657311
:BAN00030:  30    0.336210    0.393291  1.87730663
:BAN00031:  31    0.370164    0.454813  0.16492620
:BAN00032:  32    0.377751    0.462056  0.06117465
:BAN00033:  33    0.460372    0.525115  0.00000000
:BAN00034:  34    0.460993    0.533894  0.00000000
:BAN00035:  35    0.623840    0.777787  0.00000000
:BAN00036:  36    0.729584    0.826574  0.00000000
:BAN00037:  37    0.791043    0.904045  0.00000000
        Energy to separate low and high energystates:   -0.08889


:NOE  : NUMBER OF ELECTRONS          =  60.000

:FER  : F E R M I - ENERGY(TETRAH.M.)=   0.3858029364
:GMA  : POTENTIAL AND CHARGE CUT-OFF  12.00 Ry**.5




:POS001: ATOM   -1 X,Y,Z = 0.25000 0.75000 0.00000  MULT= 2  ZZ= 26.000  Fe  2+    

       LMMAX  8
       LM=   0 0  2 0 -3 2  4 0  4 4 -5 2  6 0  6 4

:CHA001: TOTAL VALENCE CHARGE INSIDE SPHERE   1 =  12.9405    (RMT=  2.3100 )
:PCS001: PARTIAL CHARGES SPHERE =  1 S,P,D,F,PZ,PXY,,D-Z2,D-XY,D-X2Y2,D-XZ,YZ 
:QTL001: 0.3438 6.3702 6.1906 0.0284 2.0996 4.2706 0.0000 1.4051 1.2992 1.1438 2.3425 0.0000
        Q-s-low E-s-low   Q-p-low E-p-low   Q-d-low E-d-low   Q-f-low E-f-low
:EPL001:  0.0556 -0.6500    6.0332 -3.4248    0.0481 -0.6422    0.0052 -0.7602
        Q-s-hi  E-s-hi    Q-p-hi  E-p-hi    Q-d-hi  E-d-hi    Q-f-hi  E-f-hi 
:EPH001:  0.2883  0.0217    0.3370  0.1430    6.1426  0.2689    0.0232  0.1590
:VZZ001: EFG INSIDE SPHERE   1 =    -0.607371      UP TO R =   2.31000




:POS002: ATOM   -2 X,Y,Z = 0.75000 0.75000 0.73000  MULT= 2  ZZ= 34.000  Se  2-    

       LMMAX 10
       LM=   0 0  1 0  2 0  3 0  4 0  4 4  5 0  5 4  6 0  6 4

:CHA002: TOTAL VALENCE CHARGE INSIDE SPHERE   2 =  13.8402    (RMT=  2.2000 )
:PCS002: PARTIAL CHARGES SPHERE =  2 S,P,D,F,PZ,PXY,,D-Z2,D-XY,D-X2Y2,D-XZ,YZ 
:QTL002: 1.4938 2.247910.0765 0.0176 0.7719 1.4760 0.0000 2.0151 2.0135 2.0125 4.0354 0.0000
        Q-s-low E-s-low   Q-p-low E-p-low   Q-d-low E-d-low   Q-f-low E-f-low
:EPL002:  1.3706 -0.6196    0.0261 -0.7024    9.9863 -3.1305    0.0004 -2.7738
        Q-s-hi  E-s-hi    Q-p-hi  E-p-hi    Q-d-hi  E-d-hi    Q-f-hi  E-f-hi 
:EPH002:  0.1231  0.1037    2.2218  0.1016    0.0902  0.1992    0.0172  0.2860
:VZZ002: EFG INSIDE SPHERE   2 =    -5.706550      UP TO R =   2.20000

:CHA  : TOTAL VALENCE CHARGE INSIDE UNIT CELL =      59.999981

:SUM  : SUM OF EIGENVALUES =        -101.824863585


        1.ATOM      Fe  2+                5 CORE STATES
:1S 001: 1S                -512.158081200 Ry
:2S 001: 2S                 -59.082709480 Ry
:2PP001: 2P*                -50.885300824 Ry
:2P 001: 2P                 -49.970091232 Ry
:3S 001: 3S                  -5.907529687 Ry

        2.ATOM      Se  2-                7 CORE STATES
       CORE-FORCE in mRy/a.u. = |F|      Fx             Fy             Fz
:FCO002:   2.ATOM    923.181761837276      0.000000000000      0.000000000000    923.181761837276

:1S 002: 1S                -916.425128536 Ry
:2S 002: 2S                -117.089887318 Ry
:2PP002: 2P*               -105.064288530 Ry
:2P 002: 2P                -102.001160849 Ry
:3S 002: 3S                 -14.830730227 Ry
:3PP002: 3P*                -10.718194108 Ry
:3P 002: 3P                 -10.286014220 Ry
:CINT001 Core Integral Atom   1   11.998515
:CINT002 Core Integral Atom   2   17.999771

       DENSITY AT NUCLEUS
        JATOM        VALENCE       SEMI-CORE          CORE           TOTAL
:RTO001:   1        6.102498        0.000000    15213.863274    15219.965772
:RTO002:   2       58.822250        0.000000    40787.149112    40845.971361
     
       CHARGES OF NEW CHARGE DENSITY
:NTO   : INTERSTITIAL CHARGE =     6.438678
:NTO001: CHARGE SPHERE  1    =    24.938965
:NTO002: CHARGE SPHERE  2    =    31.839962

:NEC01: NUCLEAR AND ELECTRONIC CHARGE    120.00000   119.99653
     
       CHARGES OF OLD CHARGE DENSITY
:OTO   : INTERSTITIAL CHARGE =     6.260120
:OTO001: CHARGE SPHERE  1    =    24.948660
:OTO002: CHARGE SPHERE  2    =    31.922558

:NEC02: NUCLEAR AND ELECTRONIC CHARGE    120.00000   120.00256
     
       CONVERGENCE TEST
:DTO001: DIFFERENCE IN SPHERE  1 =  0.4422048
:DTO002: DIFFERENCE IN SPHERE  2 =  0.1153738

:DIS  :  CHARGE DISTANCE       (  0.442205 for atom    1 spin 1)       0.278789
 
******************************************************
* MULTISECANT MIXING VER7 RELEASE 7.1.2              *
* Standard Mode with controls                        *
* Upper Bound on PW scaling active                   *
* Regularization       1.000E-04                     *
* Greed Lower Bound    2.500E-02                     *
* Trust Upper Limit    1.200E+01                     *
* Charge change trust active                         *
* Max Number of Memory Steps    8                    *
******************************************************
 
:PLANE:  INTERSTITIAL TOTAL      1.56201 DISTAN  3.660E+01 % 
:CHARG:  CLM CHARGE   /ATOM    157.78202 DISTAN  1.056E+00 % 
 
Step History
      DMIX        Red     Pred      Trust     Lambda    MagRel    MagAbs     Beta
  1  3.50E-02 -1.00E+00  1.00E+00 -1.00E+01  1.00E+00  3.50E-02  3.50E-02  1.00E+00
:INFO :  Note, Pratt in use
:DIRM :  MEMORY  0/ 8 RESCALE    1.00
:MIX  :   PRATT  REGULARIZATION: 1.00E-04  GREED: 0.0250
     
       CHARGES OF MIXED CHARGE DENSITY
:CTO   : INTERSTITIAL CHARGE =     6.262177
:CTO001: CHARGE SPHERE  1    =    24.948418
:CTO002: CHARGE SPHERE  2    =    31.920493

:NEC03: NUCLEAR AND ELECTRONIC CHARGE    120.00000   120.00000

PW CHANGE     H    K    L      Current       Change    Residue
:PTO001:      0    0    0  4.51448671E-02 -1.872E-04 -7.487E-03
:PTO002:      0    0   -1  1.90132389E-02 -1.115E-04 -4.460E-03
:PTO004:     -1    0   -1 -1.02191270E-01  4.898E-04  1.959E-02
:PTO005:      0    0   -2 -9.63259938E-03 -4.217E-05 -1.687E-03
:PTO006:     -1   -1    0 -1.94358851E-02 -1.115E-04 -4.461E-03
:PTO007:     -1   -1   -1  4.06974119E-02 -6.950E-04 -2.780E-02
:PTO008:     -1    0   -2  1.32959108E-02 -1.621E-04 -6.482E-03
:PTO009:     -1   -1   -2  5.10675750E-02 -8.604E-04 -3.442E-02
:PTO010:     -2    0    0 -2.46082893E-02  4.266E-04  1.706E-02
:PTO011:      0    0   -3  6.55328996E-03 -1.574E-04 -6.295E-03
:PTO012:     -2    0   -1 -1.00706770E-02  4.696E-04  1.878E-02
:PTO014:     -1    0   -3  1.83661089E-02 -2.974E-04 -1.190E-02

:ENE  : ********** TOTAL ENERGY IN Ry =       -14790.75381204

       TOTAL FORCE IN mRy/a.u. = |F|     Fx             Fy             Fz     with/without FOR in case.in2
:FOR001:   1.ATOM          0.000          0.000          0.000          0.000 partial forces
:FOR002:   2.ATOM        714.003          0.000          0.000       -714.003 partial forces
       TOTAL FORCE WITH RESPECT TO GLOBAL CARTESIAN COORDINATES:
:FCA001:   1.ATOM                         0.000          0.000          0.000 partial forces
:FCA002:   2.ATOM                         0.000          0.000       -714.003 partial forces
       TOTAL FORCE WITH RESPECT TO THE GLOBAL COORDINATE SYSTEM:
:FGL001:   1.ATOM                 0.000000000     0.000000000     0.000000000 partial forces
:FGL002:   2.ATOM                 0.000000000     0.000000000  -714.002911079 partial forces
 Flat Integration
 New Mode for Coulomb Integral
 Consistent 3/8+Simpson combinations
 Extension of core to zero
 LDM version in phi
 Fifth-order quadrature in outwin


            ---------
:ITE002:  2. ITERATION
            ---------

:NATO :    2 INDEPENDENT AND    4 TOTAL ATOMS IN UNITCELL
       SUBSTANCE: FeSe structure                                              

       LATTICE                      = P   
:POT  : POTENTIAL OPTION EX_LDA EC_LDA VX_LDA VC_LDA
:LAT  : LATTICE CONSTANTS=  7.12143  7.12143 10.43015    1.571    1.571    1.571
:VOL  : UNIT CELL VOLUME =     528.96326
       MODE OF CALCULATION IS       = RELA
       NON-SPINPOLARIZED CALCULATION
:IFFT  : FFT-parameters:   60   60   80 Factor: 2.00
       ATOMNUMBER=  1 Fe  2+     VCOUL-ZERO =  0.25569E+00
:EFG001:                        EFG         =    -0.09356   *10**21  V / m**2
                               V20  TOT/SRF=    -0.08102    -0.10050
                               V22  TOT/SRF=     0.00000     0.00000
                               V22M TOT/SRF=     0.00000     0.00000
                               V21  TOT/SRF=     0.00000     0.00000
                               V21M TOT/SRF=     0.00000     0.00000

              0.04678    0.00000    0.00000        0.04678    0.00000    0.00000
              0.00000    0.04678    0.00000        0.00000    0.04678    0.00000
              0.00000    0.00000   -0.09356        0.00000    0.00000   -0.09356

         MAIN DIRECTIONS OF THE EFG   1.0000  0.0000  0.0000
                                      0.0000  1.0000  0.0000
                                      0.0000  0.0000  1.0000
:ANG001:  ANGLE WITH OLD X-AXIS =         0.0

:ETA001:                         ASYMM. ETA =     0.00000


       ATOMNUMBER=  2 Se  2-     VCOUL-ZERO =  0.19812E+00
:EFG002:                        EFG         =    -0.11049   *10**21  V / m**2
                               V20  TOT/SRF=    -0.09569     0.04244
                               V22  TOT/SRF=     0.00000     0.00000
                               V22M TOT/SRF=     0.00000     0.00000
                               V21  TOT/SRF=     0.00000     0.00000
                               V21M TOT/SRF=     0.00000     0.00000

              0.05525    0.00000    0.00000        0.05525    0.00000    0.00000
              0.00000    0.05525    0.00000        0.00000    0.05525    0.00000
              0.00000    0.00000   -0.11049        0.00000    0.00000   -0.11049

         MAIN DIRECTIONS OF THE EFG   1.0000  0.0000  0.0000
                                      0.0000  1.0000  0.0000
                                      0.0000  0.0000  1.0000
:ANG002:  ANGLE WITH OLD X-AXIS =         0.0

:ETA002:                         ASYMM. ETA =     0.00000


     HELLMANN-FEYNMAN-FORCE IN mRy/a.u. = |F|  Fx       Fy             Fz
:FHF001:   1.ATOM      0.000000000000      0.000000000000      0.000000000000      0.000000000000

     HELLMANN-FEYNMAN-FORCE IN mRy/a.u. = |F|  Fx       Fy             Fz
:FHF002:   2.ATOM   1532.035735376928      0.000000000000      0.000000000000  -1532.035735376928

:FIT001: LUSE= 13 SIGMA OF V-XC FIT FOR ATOM  1  0.2372044E-02
:FIT001: LUSE= 13 SIGMA OF V-XC FIT FOR ATOM  1  0.2372044E-02
:FIT002: LUSE= 13 SIGMA OF V-XC FIT FOR ATOM  2  0.2627982E-03
:FIT002: LUSE= 13 SIGMA OF V-XC FIT FOR ATOM  2  0.2627982E-03
:DEN  : DENSITY INTEGRAL  =         -6221.73023204   (Ry)
       ELS_POTENTIAL_AT Z=0 and Z=0.5:  -0.75609   0.69456
       ELS_POTENTIAL_AT Y=0 and Y=0.5:   0.00000   0.00000
:VZERO:v0,v0c,v0x  -1.62405  -0.75609  -0.86796 v5,v5c,v5x   0.15884   0.69456  -0.53572
:VZERY:v0,v0c,v0x  -0.73016   0.00000  -0.73016 v5,v5c,v5x  -0.73016   0.00000  -0.73016
:VZERX:v0,v0c,v0x   0.08346   0.75182  -0.66835 v5,v5c,v5x   0.08346   0.75182  -0.66835
:LMAX-WF:   10   Non-Spherical LMAX:   4

          ATOMIC SPHERE DEPENDENT PARAMETERS FOR ATOM  Fe  2+    
:e__0001: OVERALL ENERGY PARAMETER IS    0.2239
          OVERALL BASIS SET ON ATOM IS LAPW
:E1_0001: E( 1)=    0.2239
             APW+lo
:E1_0001: E( 1)=   -3.4645   E(BOTTOM)=   -3.518   E(TOP)=   -3.411  1  2   152
             LOCAL ORBITAL
:E2_0001: E( 2)=    0.2944   E(BOTTOM)=   -0.001   E(TOP)=    0.590  0  1   130
             APW+lo
:E0_0001: E( 0)=    0.2239
             APW+lo

          ATOMIC SPHERE DEPENDENT PARAMETERS FOR ATOM  Se  2-    
:e__0002: OVERALL ENERGY PARAMETER IS    0.2239
          OVERALL BASIS SET ON ATOM IS LAPW
:E2_0002: E( 2)=    0.2239
             APW+lo
:E2_0002: E( 2)=   -3.1401   E(BOTTOM)=   -3.165   E(TOP)=   -3.116  0  1   144
             LOCAL ORBITAL
:E0_0002: E( 0)=    0.6239
             APW+lo
:E0_0002: E( 0)=   -0.3427   E(BOTTOM)=   -1.475   E(TOP)=    0.790  3  4   215
             LOCAL ORBITAL
:E1_0002: E( 1)=    0.2239
             APW+lo

       K=   0.08333   0.08333   0.12500            1
:RKM  : MATRIX SIZE   343LOs:  54  RKM= 6.96  WEIGHT= 8.00  PGR:    
       EIGENVALUES ARE:
:EIG00001:      -3.4596512   -3.4588849   -3.4506842   -3.4503065   -3.4499122
:EIG00006:      -3.4482933   -3.1343981   -3.1343846   -3.1342867   -3.1342360
:EIG00011:      -3.1340388   -3.1338101   -3.1337580   -3.1335358   -3.1328541
:EIG00016:      -3.1328066   -0.6817090   -0.6017587   -0.0396885    0.0805589
:EIG00021:       0.0979758    0.1057326    0.1370691    0.1517638    0.1980141
:EIG00026:       0.3324432    0.3373250    0.3543050    0.3882096    0.3893533
:EIG00031:       0.4415989    0.4515665    0.5228624    0.5313893    0.6233185
:EIG00036:       0.7626111    0.8233782    0.8759786    0.8963106    0.9301874
:EIG00041:       1.1815681    1.2061579    1.2878333    1.3004204    1.3383638
:EIG00046:       1.3716019    1.4313584    1.4926733    1.5022986    1.5177260
 
:EIG00051:       1.5820874    1.6270749    1.7497670    1.7752954    1.8134119
:EIG00056:       1.9039368
       ********************************************************

:KPT   :      NUMBER OF K-POINTS:    12
:GAP (global)   :    0.0    Ry =     0.0   eV (metal)
         Bandranges (emin - emax) and occupancy:
:BAN00022:  22    0.091933    0.131022  2.00000000
:BAN00023:  23    0.117148    0.154684  2.00000000
:BAN00024:  24    0.136507    0.168963  2.00000000
:BAN00025:  25    0.197951    0.260586  2.00000000
:BAN00026:  26    0.253464    0.334735  2.00000000
:BAN00027:  27    0.255898    0.340697  2.00000000
:BAN00028:  28    0.261522    0.363089  2.00000000
:BAN00029:  29    0.332193    0.389040  1.89625121
:BAN00030:  30    0.334569    0.391363  1.87649469
:BAN00031:  31    0.367985    0.452497  0.16478099
:BAN00032:  32    0.375513    0.459518  0.06247311
:BAN00033:  33    0.457876    0.522862  0.00000000
:BAN00034:  34    0.458531    0.531389  0.00000000
:BAN00035:  35    0.623319    0.776359  0.00000000
:BAN00036:  36    0.727804    0.826175  0.00000000
:BAN00037:  37    0.789239    0.903137  0.00000000
        Energy to separate low and high energystates:   -0.08969


:NOE  : NUMBER OF ELECTRONS          =  60.000

:FER  : F E R M I - ENERGY(TETRAH.M.)=   0.3837893774
:GMA  : POTENTIAL AND CHARGE CUT-OFF  12.00 Ry**.5




:POS001: ATOM   -1 X,Y,Z = 0.25000 0.75000 0.00000  MULT= 2  ZZ= 26.000  Fe  2+    

       LMMAX  8
       LM=   0 0  2 0 -3 2  4 0  4 4 -5 2  6 0  6 4

:CHA001: TOTAL VALENCE CHARGE INSIDE SPHERE   1 =  12.9454    (RMT=  2.3100 )
:PCS001: PARTIAL CHARGES SPHERE =  1 S,P,D,F,PZ,PXY,,D-Z2,D-XY,D-X2Y2,D-XZ,YZ 
:QTL001: 0.3424 6.3678 6.1997 0.0282 2.0992 4.2686 0.0000 1.4066 1.2989 1.1470 2.3472 0.0000
        Q-s-low E-s-low   Q-p-low E-p-low   Q-d-low E-d-low   Q-f-low E-f-low
:EPL001:  0.0550 -0.6503    6.0328 -3.4283    0.0477 -0.6429    0.0052 -0.7608
        Q-s-hi  E-s-hi    Q-p-hi  E-p-hi    Q-d-hi  E-d-hi    Q-f-hi  E-f-hi 
:EPH001:  0.2874  0.0213    0.3350  0.1423    6.1520  0.2674    0.0230  0.1575
:VZZ001: EFG INSIDE SPHERE   1 =    -0.645866      UP TO R =   2.31000




:POS002: ATOM   -2 X,Y,Z = 0.75000 0.75000 0.73000  MULT= 2  ZZ= 34.000  Se  2-    

       LMMAX 10
       LM=   0 0  1 0  2 0  3 0  4 0  4 4  5 0  5 4  6 0  6 4

:CHA002: TOTAL VALENCE CHARGE INSIDE SPHERE   2 =  13.8410    (RMT=  2.2000 )
:PCS002: PARTIAL CHARGES SPHERE =  2 S,P,D,F,PZ,PXY,,D-Z2,D-XY,D-X2Y2,D-XZ,YZ 
:QTL002: 1.4935 2.250310.0754 0.0174 0.7727 1.4776 0.0000 2.0149 2.0134 2.0125 4.0347 0.0000
        Q-s-low E-s-low   Q-p-low E-p-low   Q-d-low E-d-low   Q-f-low E-f-low
:EPL002:  1.3734 -0.6201    0.0249 -0.7056    9.9864 -3.1338    0.0004 -2.7747
        Q-s-hi  E-s-hi    Q-p-hi  E-p-hi    Q-d-hi  E-d-hi    Q-f-hi  E-f-hi 
:EPH002:  0.1201  0.1028    2.2255  0.1005    0.0890  0.1994    0.0170  0.2848
:VZZ002: EFG INSIDE SPHERE   2 =    -5.730713      UP TO R =   2.20000

:CHA  : TOTAL VALENCE CHARGE INSIDE UNIT CELL =      60.000000

:SUM  : SUM OF EIGENVALUES =        -101.961736323


        1.ATOM      Fe  2+                5 CORE STATES
:1S 001: 1S                -512.167914420 Ry
:2S 001: 2S                 -59.091795100 Ry
:2PP001: 2P*                -50.894562080 Ry
:2P 001: 2P                 -49.979335077 Ry
:3S 001: 3S                  -5.911195368 Ry

        2.ATOM      Se  2-                7 CORE STATES
       CORE-FORCE in mRy/a.u. = |F|      Fx             Fy             Fz
:FCO002:   2.ATOM    875.517413675782      0.000000000000      0.000000000000    875.517413675782

:1S 002: 1S                -916.430041321 Ry
:2S 002: 2S                -117.094342612 Ry
:2PP002: 2P*               -105.068824216 Ry
:2P 002: 2P                -102.005685364 Ry
:3S 002: 3S                 -14.834224402 Ry
:3PP002: 3P*                -10.721673926 Ry
:3P 002: 3P                 -10.289470401 Ry
:CINT001 Core Integral Atom   1   11.998521
:CINT002 Core Integral Atom   2   17.999771

       DENSITY AT NUCLEUS
        JATOM        VALENCE       SEMI-CORE          CORE           TOTAL
:RTO001:   1        6.085063        0.000000    15213.984394    15220.069458
:RTO002:   2       58.813755        0.000000    40787.188439    40846.002194
     
       CHARGES OF NEW CHARGE DENSITY
:NTO   : INTERSTITIAL CHARGE =     6.427037
:NTO001: CHARGE SPHERE  1    =    24.943966
:NTO002: CHARGE SPHERE  2    =    31.840798

:NEC01: NUCLEAR AND ELECTRONIC CHARGE    120.00000   119.99657
     
       CHARGES OF OLD CHARGE DENSITY
:OTO   : INTERSTITIAL CHARGE =     6.262177
:OTO001: CHARGE SPHERE  1    =    24.948418
:OTO002: CHARGE SPHERE  2    =    31.920493

:NEC02: NUCLEAR AND ELECTRONIC CHARGE    120.00000   120.00000
     
       CONVERGENCE TEST
:DTO001: DIFFERENCE IN SPHERE  1 =  0.4043780
:DTO002: DIFFERENCE IN SPHERE  2 =  0.1089046

:DIS  :  CHARGE DISTANCE       (  0.404378 for atom    1 spin 1)       0.256641
 
******************************************************
* MULTISECANT MIXING VER7 RELEASE 7.1.2              *
* Slow Mode, cautious                                *
* Hybrid mode active    2.500E-01                     *
* Upper Bound on PW scaling active                   *
* Regularization       1.000E-04                     *
* Step Trust Radius    0.75000                       *
* Greed Lower Bound    2.000E-02                     *
* Trust Upper Limit    5.000E+00                     *
* Charge change trust active                         *
* Max Number of Memory Steps   12                    *
******************************************************
 
:PLANE:  INTERSTITIAL TOTAL      1.55156 DISTAN  3.594E+01 % 
:CHARG:  CLM CHARGE   /ATOM    157.77814 DISTAN  1.013E+00 % 
 
Step History
      DMIX        Red     Pred      Trust     Lambda    MagRel    MagAbs     Beta
  1  3.50E-02 -1.00E+00  1.00E+00 -1.00E+01  1.00E+00  3.50E-02  3.50E-02  1.00E+00
  2  2.50E-02 -1.00E+00  1.00E+00 -1.00E+01  1.00E+00  2.50E-02  8.45E-02  1.00E+00
  
:DIRM :  MEMORY  1/12 RESCALE    5.78
:MIX  :   PRATT  REGULARIZATION: 1.00E-04  GREED: 0.0625  Expand 2.50 0.062                
     
       CHARGES OF MIXED CHARGE DENSITY
:CTO   : INTERSTITIAL CHARGE =     6.271406
:CTO001: CHARGE SPHERE  1    =    24.947933
:CTO002: CHARGE SPHERE  2    =    31.916364

:NEC03: NUCLEAR AND ELECTRONIC CHARGE    120.00000   120.00000

PW CHANGE     H    K    L      Current       Change    Residue
:PTO001:      0    0    0  4.47704940E-02 -3.744E-04 -7.359E-03
:PTO002:      0    0   -1  1.87902577E-02 -2.230E-04 -4.520E-03
:PTO004:     -1    0   -1 -1.01211705E-01  9.796E-04  1.909E-02
:PTO005:      0    0   -2 -9.71694384E-03 -8.434E-05 -1.675E-03
:PTO006:     -1   -1    0 -1.96589546E-02 -2.231E-04 -4.351E-03
:PTO007:     -1   -1   -1  3.93073844E-02 -1.390E-03 -2.702E-02
:PTO008:     -1    0   -2  1.29717923E-02 -3.241E-04 -6.203E-03
:PTO009:     -1   -1   -2  4.93466860E-02 -1.721E-03 -3.355E-02
:PTO010:     -2    0    0 -2.37551408E-02  8.531E-04  1.661E-02
:PTO011:      0    0   -3  6.23853401E-03 -3.148E-04 -6.115E-03
:PTO012:     -2    0   -1 -9.13157666E-03  9.391E-04  1.828E-02
:PTO014:     -1    0   -3  1.77713132E-02 -5.948E-04 -1.162E-02

:ENE  : ********** TOTAL ENERGY IN Ry =       -14790.74618888

       TOTAL FORCE IN mRy/a.u. = |F|     Fx             Fy             Fz     with/without FOR in case.in2
:FOR001:   1.ATOM          0.000          0.000          0.000          0.000 partial forces
:FOR002:   2.ATOM        656.518          0.000          0.000       -656.518 partial forces
       TOTAL FORCE WITH RESPECT TO GLOBAL CARTESIAN COORDINATES:
:FCA001:   1.ATOM                         0.000          0.000          0.000 partial forces
:FCA002:   2.ATOM                         0.000          0.000       -656.518 partial forces
       TOTAL FORCE WITH RESPECT TO THE GLOBAL COORDINATE SYSTEM:
:FGL001:   1.ATOM                 0.000000000     0.000000000     0.000000000 partial forces
:FGL002:   2.ATOM                 0.000000000     0.000000000  -656.518321701 partial forces
 Flat Integration
 New Mode for Coulomb Integral
 Consistent 3/8+Simpson combinations
 Extension of core to zero
 LDM version in phi
 Fifth-order quadrature in outwin


            ---------
:ITE003:  3. ITERATION
            ---------

:NATO :    2 INDEPENDENT AND    4 TOTAL ATOMS IN UNITCELL
       SUBSTANCE: FeSe structure                                              

       LATTICE                      = P   
:POT  : POTENTIAL OPTION EX_LDA EC_LDA VX_LDA VC_LDA
:LAT  : LATTICE CONSTANTS=  7.12143  7.12143 10.43015    1.571    1.571    1.571
:VOL  : UNIT CELL VOLUME =     528.96326
       MODE OF CALCULATION IS       = RELA
       NON-SPINPOLARIZED CALCULATION
:IFFT  : FFT-parameters:   60   60   80 Factor: 2.00
       ATOMNUMBER=  1 Fe  2+     VCOUL-ZERO =  0.26343E+00
:EFG001:                        EFG         =    -0.11429   *10**21  V / m**2
                               V20  TOT/SRF=    -0.09898    -0.08931
                               V22  TOT/SRF=     0.00000     0.00000
                               V22M TOT/SRF=     0.00000     0.00000
                               V21  TOT/SRF=     0.00000     0.00000
                               V21M TOT/SRF=     0.00000     0.00000

              0.05715    0.00000    0.00000        0.05715    0.00000    0.00000
              0.00000    0.05715    0.00000        0.00000    0.05715    0.00000
              0.00000    0.00000   -0.11429        0.00000    0.00000   -0.11429

         MAIN DIRECTIONS OF THE EFG   1.0000  0.0000  0.0000
                                      0.0000  1.0000  0.0000
                                      0.0000  0.0000  1.0000
:ANG001:  ANGLE WITH OLD X-AXIS =         0.0

:ETA001:                         ASYMM. ETA =     0.00000


       ATOMNUMBER=  2 Se  2-     VCOUL-ZERO =  0.19693E+00
:EFG002:                        EFG         =    -0.39719   *10**21  V / m**2
                               V20  TOT/SRF=    -0.34398     0.03903
                               V22  TOT/SRF=     0.00000     0.00000
                               V22M TOT/SRF=     0.00000     0.00000
                               V21  TOT/SRF=     0.00000     0.00000
                               V21M TOT/SRF=     0.00000     0.00000

              0.19860    0.00000    0.00000        0.19860    0.00000    0.00000
              0.00000    0.19860    0.00000        0.00000    0.19860    0.00000
              0.00000    0.00000   -0.39719        0.00000    0.00000   -0.39719

         MAIN DIRECTIONS OF THE EFG   1.0000  0.0000  0.0000
                                      0.0000  1.0000  0.0000
                                      0.0000  0.0000  1.0000
:ANG002:  ANGLE WITH OLD X-AXIS =         0.0

:ETA002:                         ASYMM. ETA =     0.00000


     HELLMANN-FEYNMAN-FORCE IN mRy/a.u. = |F|  Fx       Fy             Fz
:FHF001:   1.ATOM      0.000000000000      0.000000000000      0.000000000000      0.000000000000

     HELLMANN-FEYNMAN-FORCE IN mRy/a.u. = |F|  Fx       Fy             Fz
:FHF002:   2.ATOM   1329.084517321152      0.000000000000      0.000000000000  -1329.084517321152

:FIT001: LUSE= 13 SIGMA OF V-XC FIT FOR ATOM  1  0.2402156E-02
:FIT001: LUSE= 13 SIGMA OF V-XC FIT FOR ATOM  1  0.2402156E-02
:FIT002: LUSE= 13 SIGMA OF V-XC FIT FOR ATOM  2  0.2828671E-03
:FIT002: LUSE= 13 SIGMA OF V-XC FIT FOR ATOM  2  0.2828671E-03
:DEN  : DENSITY INTEGRAL  =         -6220.76275944   (Ry)
       ELS_POTENTIAL_AT Z=0 and Z=0.5:  -0.74260   0.68359
       ELS_POTENTIAL_AT Y=0 and Y=0.5:   0.00000   0.00000
:VZERO:v0,v0c,v0x  -1.60786  -0.74260  -0.86526 v5,v5c,v5x   0.14931   0.68359  -0.53428
:VZERY:v0,v0c,v0x  -0.72901   0.00000  -0.72901 v5,v5c,v5x  -0.72901   0.00000  -0.72901
:VZERX:v0,v0c,v0x   0.08116   0.75077  -0.66961 v5,v5c,v5x   0.08116   0.75077  -0.66961
:LMAX-WF:   10   Non-Spherical LMAX:   4

          ATOMIC SPHERE DEPENDENT PARAMETERS FOR ATOM  Fe  2+    
:e__0001: OVERALL ENERGY PARAMETER IS    0.1971
          OVERALL BASIS SET ON ATOM IS LAPW
:E1_0001: E( 1)=    0.1971
             APW+lo
:E1_0001: E( 1)=   -3.4711   E(BOTTOM)=   -3.524   E(TOP)=   -3.418  1  2   150
             LOCAL ORBITAL
:E2_0001: E( 2)=    0.2906   E(BOTTOM)=   -0.003   E(TOP)=    0.584  0  1   124
             APW+lo
:E0_0001: E( 0)=    0.1971
             APW+lo

          ATOMIC SPHERE DEPENDENT PARAMETERS FOR ATOM  Se  2-    
:e__0002: OVERALL ENERGY PARAMETER IS    0.1971
          OVERALL BASIS SET ON ATOM IS LAPW
:E2_0002: E( 2)=    0.1971
             APW+lo
:E2_0002: E( 2)=   -3.1466   E(BOTTOM)=   -3.171   E(TOP)=   -3.122  0  1   141
             LOCAL ORBITAL
:E0_0002: E( 0)=    0.5971
             APW+lo
:E0_0002: E( 0)=   -0.3460   E(BOTTOM)=   -1.478   E(TOP)=    0.786  3  4   214
             LOCAL ORBITAL
:E1_0002: E( 1)=    0.1971
             APW+lo

       K=   0.08333   0.08333   0.12500            1
:RKM  : MATRIX SIZE   343LOs:  54  RKM= 6.96  WEIGHT= 8.00  PGR:    
       EIGENVALUES ARE:
:EIG00001:      -3.4661905   -3.4654330   -3.4573195   -3.4569215   -3.4565563
:EIG00006:      -3.4549304   -3.1408156   -3.1408053   -3.1407046   -3.1406558
:EIG00011:      -3.1404225   -3.1403482   -3.1401940   -3.1401287   -3.1394516
:EIG00016:      -3.1394091   -0.6822723   -0.6028225   -0.0409850    0.0795322
:EIG00021:       0.0968738    0.1042636    0.1362733    0.1507623    0.1963284
:EIG00026:       0.3278875    0.3333969    0.3504064    0.3841711    0.3852550
:EIG00031:       0.4378792    0.4465038    0.5184830    0.5265251    0.6225369
:EIG00036:       0.7602973    0.8213678    0.8744363    0.8961758    0.9289196
:EIG00041:       1.1795726    1.2039659    1.2848803    1.2977257    1.3376073
:EIG00046:       1.3701824    1.4296503    1.4894219    1.5011361    1.5160215
 
:EIG00051:       1.5797033    1.6239463    1.7477077    1.7748642    1.8127718
       ********************************************************

:KPT   :      NUMBER OF K-POINTS:    12
:GAP (global)   :    0.0    Ry =     0.0   eV (metal)
         Bandranges (emin - emax) and occupancy:
:BAN00022:  22    0.089857    0.129632  2.00000000
:BAN00023:  23    0.115705    0.154284  2.00000000
:BAN00024:  24    0.135527    0.168255  2.00000000
:BAN00025:  25    0.196266    0.258315  2.00000000
:BAN00026:  26    0.250647    0.329989  2.00000000
:BAN00027:  27    0.254825    0.336742  2.00000000
:BAN00028:  28    0.258846    0.359924  2.00000000
:BAN00029:  29    0.328931    0.384931  1.89586474
:BAN00030:  30    0.331265    0.387488  1.87518499
:BAN00031:  31    0.363596    0.447972  0.16412506
:BAN00032:  32    0.371039    0.454520  0.06482520
:BAN00033:  33    0.452883    0.518483  0.00000000
:BAN00034:  34    0.453625    0.526525  0.00000000
:BAN00035:  35    0.622537    0.773751  0.00000000
:BAN00036:  36    0.724494    0.825525  0.00000000
:BAN00037:  37    0.785936    0.901492  0.00000000
        Energy to separate low and high energystates:   -0.09099


:NOE  : NUMBER OF ELECTRONS          =  60.000

:FER  : F E R M I - ENERGY(TETRAH.M.)=   0.3797482136
:GMA  : POTENTIAL AND CHARGE CUT-OFF  12.00 Ry**.5




:POS001: ATOM   -1 X,Y,Z = 0.25000 0.75000 0.00000  MULT= 2  ZZ= 26.000  Fe  2+    

       LMMAX  8
       LM=   0 0  2 0 -3 2  4 0  4 4 -5 2  6 0  6 4

:CHA001: TOTAL VALENCE CHARGE INSIDE SPHERE   1 =  12.9574    (RMT=  2.3100 )
:PCS001: PARTIAL CHARGES SPHERE =  1 S,P,D,F,PZ,PXY,,D-Z2,D-XY,D-X2Y2,D-XZ,YZ 
:QTL001: 0.3397 6.3631 6.2196 0.0278 2.0984 4.2647 0.0000 1.4098 1.2987 1.1535 2.3577 0.0000
        Q-s-low E-s-low   Q-p-low E-p-low   Q-d-low E-d-low   Q-f-low E-f-low
:EPL001:  0.0540 -0.6509    6.0321 -3.4353    0.0470 -0.6440    0.0051 -0.7620
        Q-s-hi  E-s-hi    Q-p-hi  E-p-hi    Q-d-hi  E-d-hi    Q-f-hi  E-f-hi 
:EPH001:  0.2857  0.0208    0.3310  0.1409    6.1726  0.2645    0.0227  0.1548
:VZZ001: EFG INSIDE SPHERE   1 =    -0.731625      UP TO R =   2.31000




:POS002: ATOM   -2 X,Y,Z = 0.75000 0.75000 0.73000  MULT= 2  ZZ= 34.000  Se  2-    

       LMMAX 10
       LM=   0 0  1 0  2 0  3 0  4 0  4 4  5 0  5 4  6 0  6 4

:CHA002: TOTAL VALENCE CHARGE INSIDE SPHERE   2 =  13.8418    (RMT=  2.2000 )
:PCS002: PARTIAL CHARGES SPHERE =  2 S,P,D,F,PZ,PXY,,D-Z2,D-XY,D-X2Y2,D-XZ,YZ 
:QTL002: 1.4931 2.254110.0731 0.0171 0.7741 1.4801 0.0000 2.0144 2.0131 2.0124 4.0332 0.0000
        Q-s-low E-s-low   Q-p-low E-p-low   Q-d-low E-d-low   Q-f-low E-f-low
:EPL002:  1.3787 -0.6210    0.0226 -0.7126    9.9864 -3.1403    0.0004 -2.7774
        Q-s-hi  E-s-hi    Q-p-hi  E-p-hi    Q-d-hi  E-d-hi    Q-f-hi  E-f-hi 
:EPH002:  0.1144  0.1013    2.2315  0.0985    0.0867  0.1997    0.0167  0.2823
:VZZ002: EFG INSIDE SPHERE   2 =    -5.751848      UP TO R =   2.20000

:CHA  : TOTAL VALENCE CHARGE INSIDE UNIT CELL =      60.000000

:SUM  : SUM OF EIGENVALUES =        -102.227390655


        1.ATOM      Fe  2+                5 CORE STATES
:1S 001: 1S                -512.187618857 Ry
:2S 001: 2S                 -59.110004219 Ry
:2PP001: 2P*                -50.913122519 Ry
:2P 001: 2P                 -49.997860696 Ry
:3S 001: 3S                  -5.918568665 Ry

        2.ATOM      Se  2-                7 CORE STATES
       CORE-FORCE in mRy/a.u. = |F|      Fx             Fy             Fz
:FCO002:   2.ATOM    784.078017938411      0.000000000000      0.000000000000    784.078017938411

:1S 002: 1S                -916.439589385 Ry
:2S 002: 2S                -117.102975694 Ry
:2PP002: 2P*               -105.077618084 Ry
:2P 002: 2P                -102.014456890 Ry
:3S 002: 3S                 -14.840935292 Ry
:3PP002: 3P*                -10.728356130 Ry
:3P 002: 3P                 -10.296105335 Ry
:CINT001 Core Integral Atom   1   11.998534
:CINT002 Core Integral Atom   2   17.999772

       DENSITY AT NUCLEUS
        JATOM        VALENCE       SEMI-CORE          CORE           TOTAL
:RTO001:   1        6.029570        0.000000    15214.226501    15220.256071
:RTO002:   2       58.805286        0.000000    40787.267092    40846.072378
     
       CHARGES OF NEW CHARGE DENSITY
:NTO   : INTERSTITIAL CHARGE =     6.401597
:NTO001: CHARGE SPHERE  1    =    24.955951
:NTO002: CHARGE SPHERE  2    =    31.841546

:NEC01: NUCLEAR AND ELECTRONIC CHARGE    120.00000   119.99659
     
       CHARGES OF OLD CHARGE DENSITY
:OTO   : INTERSTITIAL CHARGE =     6.271406
:OTO001: CHARGE SPHERE  1    =    24.947933
:OTO002: CHARGE SPHERE  2    =    31.916364

:NEC02: NUCLEAR AND ELECTRONIC CHARGE    120.00000   120.00000
     
       CONVERGENCE TEST
:DTO001: DIFFERENCE IN SPHERE  1 =  0.3279121
:DTO002: DIFFERENCE IN SPHERE  2 =  0.0979986

:DIS  :  CHARGE DISTANCE       (  0.327912 for atom    1 spin 1)       0.212955
 
******************************************************
* MULTISECANT MIXING VER7 RELEASE 7.1.2              *
* Standard Mode with controls                        *
* Upper Bound on PW scaling active                   *
* Regularization       1.000E-04                     *
* Greed Lower Bound    2.500E-02                     *
* Trust Upper Limit    1.200E+01                     *
* Charge change trust active                         *
* Max Number of Memory Steps    8                    *
******************************************************
 
:PLANE:  INTERSTITIAL TOTAL      1.53083 DISTAN  3.458E+01 % 
:CHARG:  CLM CHARGE   /ATOM    157.77042 DISTAN  9.302E-01 % 
 
Step History
      DMIX        Red     Pred      Trust     Lambda    MagRel    MagAbs     Beta
  1  3.50E-02 -1.00E+00  1.00E+00 -1.00E+01  1.00E+00  3.50E-02  3.50E-02  1.00E+00
  2  2.50E-02  9.68E-01  1.00E+00 -1.00E+01  1.00E+00  2.50E-02  8.45E-02  1.00E+00
  3  6.25E-02 -1.00E+00  1.00E+00 -1.00E+01  1.00E+00  6.25E-02  2.84E-01  1.00E+00
  
:NORMS:  1/Froebius, Min, Max, Used   0.6713E+00  0.2964E+00  0.6713E+00  0.6713E+00
:INFO :  Number of Memory Steps    2 Skipping    0
:INFO :  SLambda=    1.2702540  Max    1.2702540

Eigenvalues, unscaled except for SY+YY
   #     SY Real        SY Imag          SS             YY         SY+YY Real      SY+YY Imag
   1   1.182130E+00   0.000000E+00   9.012244E-01   1.999964E+00   3.501570E+00   0.000000E+00
   2   4.440892E-16   0.000000E+00   0.000000E+00   3.576799E-05   3.581224E-05   0.000000E+00
 
:INFO :  Singular value  3.502E+00 Weight  1.000E+00 Projection  2.895E+00
:INFO :  Singular value  3.581E-05 Weight  3.107E-02 Projection  8.232E-01
:RANK :  ACTIVE   1.03/2  =  51.55 %
 
:TRUST:  Step 2.18E-01  Charge 3.50E-02 (e)
:DTRUS:  Lambda    1.052E+00 Increment    7.276E-12 Iterations   111 DMIX  0.0357
:INFOA:  Angle SubSpace to MSR1      1.94
:DIRM :  MEMORY  2/8  RESCALE    5.70 RED  0.93 PRED  1.00 NEXT  0.75 
:INFO :  Limited by Atoms F by Step T

:DIRP :  |MSR1|= 6.633E-01 |PRATT|= 3.018E+00 ANGLE=   0.5 DEGREES
:DIRQ :  |MSR1|= 6.319E-01 |PRATT|= 2.935E+00 ANGLE=   2.0 DEGREES
:DIRT :  |MSR1|= 9.161E-01 |PRATT|= 4.210E+00 ANGLE=   1.5 DEGREES
:MIX  :   MSE1   REGULARIZATION: 2.00E-04  GREED: 0.0657  LMStep 0.33 0.218 Step           
     
       CHARGES OF MIXED CHARGE DENSITY
:CTO   : INTERSTITIAL CHARGE =     6.297053
:CTO001: CHARGE SPHERE  1    =    24.951442
:CTO002: CHARGE SPHERE  2    =    31.900032

:NEC03: NUCLEAR AND ELECTRONIC CHARGE    120.00000   120.00000

PW CHANGE     H    K    L      Current       Change    Residue
:PTO001:      0    0    0  4.31909429E-02 -1.580E-03 -7.107E-03
:PTO002:      0    0   -1  1.77238032E-02 -1.066E-03 -4.632E-03
:PTO004:     -1    0   -1 -9.72436798E-02  3.968E-03  1.808E-02
:PTO005:      0    0   -2 -1.00878897E-02 -3.709E-04 -1.649E-03
:PTO006:     -1   -1    0 -2.05670900E-02 -9.081E-04 -4.131E-03
:PTO007:     -1   -1   -1  3.37335656E-02 -5.574E-03 -2.547E-02
:PTO008:     -1    0   -2  1.17619533E-02 -1.210E-03 -5.654E-03
:PTO009:     -1   -1   -2  4.23653680E-02 -6.981E-03 -3.179E-02
:PTO010:     -2    0    0 -2.03151481E-02  3.440E-03  1.570E-02
:PTO011:      0    0   -3  4.98046165E-03 -1.258E-03 -5.755E-03
:PTO012:     -2    0   -1 -5.34464976E-03  3.787E-03  1.728E-02
:PTO014:     -1    0   -3  1.53367231E-02 -2.435E-03 -1.106E-02

:ENE  : ********** TOTAL ENERGY IN Ry =       -14790.73268884

       TOTAL FORCE IN mRy/a.u. = |F|     Fx             Fy             Fz     with/without FOR in case.in2
:FOR001:   1.ATOM          0.000          0.000          0.000          0.000 partial forces
:FOR002:   2.ATOM        545.006          0.000          0.000       -545.006 partial forces
       TOTAL FORCE WITH RESPECT TO GLOBAL CARTESIAN COORDINATES:
:FCA001:   1.ATOM                         0.000          0.000          0.000 partial forces
:FCA002:   2.ATOM                         0.000          0.000       -545.006 partial forces
       TOTAL FORCE WITH RESPECT TO THE GLOBAL COORDINATE SYSTEM:
:FGL001:   1.ATOM                 0.000000000     0.000000000     0.000000000 partial forces
:FGL002:   2.ATOM                 0.000000000     0.000000000  -545.006499383 partial forces
 Flat Integration
 New Mode for Coulomb Integral
 Consistent 3/8+Simpson combinations
 Extension of core to zero
 LDM version in phi
 Fifth-order quadrature in outwin


            ---------
:ITE004:  4. ITERATION
            ---------

:NATO :    2 INDEPENDENT AND    4 TOTAL ATOMS IN UNITCELL
       SUBSTANCE: FeSe structure                                              

       LATTICE                      = P   
:POT  : POTENTIAL OPTION EX_LDA EC_LDA VX_LDA VC_LDA
:LAT  : LATTICE CONSTANTS=  7.12143  7.12143 10.43015    1.571    1.571    1.571
:VOL  : UNIT CELL VOLUME =     528.96326
       MODE OF CALCULATION IS       = RELA
       NON-SPINPOLARIZED CALCULATION
:IFFT  : FFT-parameters:   60   60   80 Factor: 2.00
       ATOMNUMBER=  1 Fe  2+     VCOUL-ZERO =  0.29072E+00
:EFG001:                        EFG         =    -0.24487   *10**21  V / m**2
                               V20  TOT/SRF=    -0.21206    -0.05049
                               V22  TOT/SRF=     0.00000     0.00000
                               V22M TOT/SRF=     0.00000     0.00000
                               V21  TOT/SRF=     0.00000     0.00000
                               V21M TOT/SRF=     0.00000     0.00000

              0.12243    0.00000    0.00000        0.12243    0.00000    0.00000
              0.00000    0.12243    0.00000        0.00000    0.12243    0.00000
              0.00000    0.00000   -0.24487        0.00000    0.00000   -0.24487

         MAIN DIRECTIONS OF THE EFG   1.0000  0.0000  0.0000
                                      0.0000  1.0000  0.0000
                                      0.0000  0.0000  1.0000
:ANG001:  ANGLE WITH OLD X-AXIS =         0.0

:ETA001:                         ASYMM. ETA =     0.00000


       ATOMNUMBER=  2 Se  2-     VCOUL-ZERO =  0.19172E+00
:EFG002:                        EFG         =    -1.57403   *10**21  V / m**2
                               V20  TOT/SRF=    -1.36315     0.02681
                               V22  TOT/SRF=     0.00000     0.00000
                               V22M TOT/SRF=     0.00000     0.00000
                               V21  TOT/SRF=     0.00000     0.00000
                               V21M TOT/SRF=     0.00000     0.00000

              0.78702    0.00000    0.00000        0.78702    0.00000    0.00000
              0.00000    0.78702    0.00000        0.00000    0.78702    0.00000
              0.00000    0.00000   -1.57403        0.00000    0.00000   -1.57403

         MAIN DIRECTIONS OF THE EFG   1.0000  0.0000  0.0000
                                      0.0000  1.0000  0.0000
                                      0.0000  0.0000  1.0000
:ANG002:  ANGLE WITH OLD X-AXIS =         0.0

:ETA002:                         ASYMM. ETA =     0.00000


     HELLMANN-FEYNMAN-FORCE IN mRy/a.u. = |F|  Fx       Fy             Fz
:FHF001:   1.ATOM      0.000000000000      0.000000000000      0.000000000000      0.000000000000

     HELLMANN-FEYNMAN-FORCE IN mRy/a.u. = |F|  Fx       Fy             Fz
:FHF002:   2.ATOM    702.423265932157      0.000000000000      0.000000000000   -702.423265932157

:FIT001: LUSE= 13 SIGMA OF V-XC FIT FOR ATOM  1  0.2531817E-02
:FIT001: LUSE= 13 SIGMA OF V-XC FIT FOR ATOM  1  0.2531817E-02
:FIT002: LUSE= 13 SIGMA OF V-XC FIT FOR ATOM  2  0.3670974E-03
:FIT002: LUSE= 13 SIGMA OF V-XC FIT FOR ATOM  2  0.3670974E-03
:DEN  : DENSITY INTEGRAL  =         -6217.93511354   (Ry)
       ELS_POTENTIAL_AT Z=0 and Z=0.5:  -0.68936   0.64328
       ELS_POTENTIAL_AT Y=0 and Y=0.5:   0.00000   0.00000
:VZERO:v0,v0c,v0x  -1.54124  -0.68936  -0.85187 v5,v5c,v5x   0.11429   0.64328  -0.52900
:VZERY:v0,v0c,v0x  -0.72374   0.00000  -0.72374 v5,v5c,v5x  -0.72374   0.00000  -0.72374
:VZERX:v0,v0c,v0x   0.07072   0.74508  -0.67437 v5,v5c,v5x   0.07072   0.74508  -0.67437
:LMAX-WF:   10   Non-Spherical LMAX:   4

          ATOMIC SPHERE DEPENDENT PARAMETERS FOR ATOM  Fe  2+    
:e__0001: OVERALL ENERGY PARAMETER IS    0.1855
          OVERALL BASIS SET ON ATOM IS LAPW
:E1_0001: E( 1)=    0.1855
             APW+lo
:E1_0001: E( 1)=   -3.4839   E(BOTTOM)=   -3.536   E(TOP)=   -3.432  1  2   141
             LOCAL ORBITAL
:E2_0001: E( 2)=    0.2851   E(BOTTOM)=   -0.002   E(TOP)=    0.572  0  1   126
             APW+lo
:E0_0001: E( 0)=    0.1855
             APW+lo

          ATOMIC SPHERE DEPENDENT PARAMETERS FOR ATOM  Se  2-    
:e__0002: OVERALL ENERGY PARAMETER IS    0.1855
          OVERALL BASIS SET ON ATOM IS LAPW
:E2_0002: E( 2)=    0.1855
             APW+lo
:E2_0002: E( 2)=   -3.1711   E(BOTTOM)=   -3.195   E(TOP)=   -3.147  0  1   142
             LOCAL ORBITAL
:E0_0002: E( 0)=    0.5855
             APW+lo
:E0_0002: E( 0)=   -0.3594   E(BOTTOM)=   -1.489   E(TOP)=    0.770  3  4   210
             LOCAL ORBITAL
:E1_0002: E( 1)=    0.1855
             APW+lo

       K=   0.08333   0.08333   0.12500            1
:RKM  : MATRIX SIZE   343LOs:  54  RKM= 6.96  WEIGHT= 8.00  PGR:    
       EIGENVALUES ARE:
:EIG00001:      -3.4792609   -3.4785278   -3.4706542   -3.4699153   -3.4696427
:EIG00006:      -3.4677139   -3.1653776   -3.1652133   -3.1651629   -3.1650653
:EIG00011:      -3.1650566   -3.1650019   -3.1646844   -3.1645323   -3.1644633
:EIG00016:      -3.1643449   -0.6861584   -0.6083201   -0.0450120    0.0777867
:EIG00021:       0.0953041    0.1011306    0.1334927    0.1472007    0.1964997
:EIG00026:       0.3183189    0.3267306    0.3413983    0.3774250    0.3788944
:EIG00031:       0.4285607    0.4368614    0.5063883    0.5135021    0.6194054
:EIG00036:       0.7543986    0.8150830    0.8696123    0.8960229    0.9247725
:EIG00041:       1.1699686    1.1988168    1.2744845    1.2873358    1.3335038
:EIG00046:       1.3662190    1.4232358    1.4781804    1.4964307    1.5093868
 
:EIG00051:       1.5712493    1.6127053    1.7396996    1.7723178    1.8103044
       ********************************************************

:KPT   :      NUMBER OF K-POINTS:    12
:GAP (global)   :    0.0    Ry =     0.0   eV (metal)
         Bandranges (emin - emax) and occupancy:
:BAN00022:  22    0.082107    0.124818  2.00000000
:BAN00023:  23    0.112672    0.153065  2.00000000
:BAN00024:  24    0.131662    0.166275  2.00000000
:BAN00025:  25    0.196439    0.256610  2.00000000
:BAN00026:  26    0.247075    0.319223  2.00000000
:BAN00027:  27    0.253840    0.330136  2.00000000
:BAN00028:  28    0.258255    0.352907  2.00000000
:BAN00029:  29    0.324861    0.378536  1.89036479
:BAN00030:  30    0.326961    0.381266  1.86547814
:BAN00031:  31    0.356310    0.436842  0.16919659
:BAN00032:  32    0.362858    0.442849  0.07496629
:BAN00033:  33    0.443078    0.506388  0.00000000
:BAN00034:  34    0.443665    0.513502  0.00000000
:BAN00035:  35    0.619405    0.766153  0.00000000
:BAN00036:  36    0.714901    0.823383  0.00000000
:BAN00037:  37    0.775928    0.896569  0.00000000
        Energy to separate low and high energystates:   -0.09501


:NOE  : NUMBER OF ELECTRONS          =  60.000

:FER  : F E R M I - ENERGY(TETRAH.M.)=   0.3728850935
:GMA  : POTENTIAL AND CHARGE CUT-OFF  12.00 Ry**.5




:POS001: ATOM   -1 X,Y,Z = 0.25000 0.75000 0.00000  MULT= 2  ZZ= 26.000  Fe  2+    

       LMMAX  8
       LM=   0 0  2 0 -3 2  4 0  4 4 -5 2  6 0  6 4

:CHA001: TOTAL VALENCE CHARGE INSIDE SPHERE   1 =  12.9457    (RMT=  2.3100 )
:PCS001: PARTIAL CHARGES SPHERE =  1 S,P,D,F,PZ,PXY,,D-Z2,D-XY,D-X2Y2,D-XZ,YZ 
:QTL001: 0.3294 6.3486 6.2340 0.0266 2.0966 4.2520 0.0000 1.4099 1.2916 1.1698 2.3627 0.0000
        Q-s-low E-s-low   Q-p-low E-p-low   Q-d-low E-d-low   Q-f-low E-f-low
:EPL001:  0.0501 -0.6550    6.0293 -3.4499    0.0442 -0.6503    0.0049 -0.7687
        Q-s-hi  E-s-hi    Q-p-hi  E-p-hi    Q-d-hi  E-d-hi    Q-f-hi  E-f-hi 
:EPH001:  0.2793  0.0192    0.3193  0.1379    6.1899  0.2608    0.0218  0.1479
:VZZ001: EFG INSIDE SPHERE   1 =    -0.624537      UP TO R =   2.31000




:POS002: ATOM   -2 X,Y,Z = 0.75000 0.75000 0.73000  MULT= 2  ZZ= 34.000  Se  2-    

       LMMAX 10
       LM=   0 0  1 0  2 0  3 0  4 0  4 4  5 0  5 4  6 0  6 4

:CHA002: TOTAL VALENCE CHARGE INSIDE SPHERE   2 =  13.8712    (RMT=  2.2000 )
:PCS002: PARTIAL CHARGES SPHERE =  2 S,P,D,F,PZ,PXY,,D-Z2,D-XY,D-X2Y2,D-XZ,YZ 
:QTL002: 1.4920 2.292010.0668 0.0162 0.7875 1.5046 0.0000 2.0134 2.0127 2.0123 4.0284 0.0000
        Q-s-low E-s-low   Q-p-low E-p-low   Q-d-low E-d-low   Q-f-low E-f-low
:EPL002:  1.3972 -0.6261    0.0155 -0.7501    9.9866 -3.1649    0.0003 -2.8005
        Q-s-hi  E-s-hi    Q-p-hi  E-p-hi    Q-d-hi  E-d-hi    Q-f-hi  E-f-hi 
:EPH002:  0.0948  0.0967    2.2765  0.0928    0.0802  0.2070    0.0158  0.2798
:VZZ002: EFG INSIDE SPHERE   2 =    -6.009549      UP TO R =   2.20000

:CHA  : TOTAL VALENCE CHARGE INSIDE UNIT CELL =      60.000006

:SUM  : SUM OF EIGENVALUES =        -102.996189412


        1.ATOM      Fe  2+                5 CORE STATES
:1S 001: 1S                -512.235094185 Ry
:2S 001: 2S                 -59.154841756 Ry
:2PP001: 2P*                -50.958720539 Ry
:2P 001: 2P                 -50.043378994 Ry
:3S 001: 3S                  -5.933777156 Ry

        2.ATOM      Se  2-                7 CORE STATES
       CORE-FORCE in mRy/a.u. = |F|      Fx             Fy             Fz
:FCO002:   2.ATOM    524.456950299089      0.000000000000      0.000000000000    524.456950299089

:1S 002: 1S                -916.474129425 Ry
:2S 002: 2S                -117.134485483 Ry
:2PP002: 2P*               -105.109650035 Ry
:2P 002: 2P                -102.046416074 Ry
:3S 002: 3S                 -14.866358696 Ry
:3PP002: 3P*                -10.753672241 Ry
:3P 002: 3P                 -10.321266722 Ry
:CINT001 Core Integral Atom   1   11.998568
:CINT002 Core Integral Atom   2   17.999774

       DENSITY AT NUCLEUS
        JATOM        VALENCE       SEMI-CORE          CORE           TOTAL
:RTO001:   1        5.814689        0.000000    15214.880262    15220.694952
:RTO002:   2       58.803699        0.000000    40787.524178    40846.327878
     
       CHARGES OF NEW CHARGE DENSITY
:NTO   : INTERSTITIAL CHARGE =     6.366155
:NTO001: CHARGE SPHERE  1    =    24.944239
:NTO002: CHARGE SPHERE  2    =    31.871018

:NEC01: NUCLEAR AND ELECTRONIC CHARGE    120.00000   119.99667
     
       CHARGES OF OLD CHARGE DENSITY
:OTO   : INTERSTITIAL CHARGE =     6.297053
:OTO001: CHARGE SPHERE  1    =    24.951442
:OTO002: CHARGE SPHERE  2    =    31.900032

:NEC02: NUCLEAR AND ELECTRONIC CHARGE    120.00000   120.00000
     
       CONVERGENCE TEST
:DTO001: DIFFERENCE IN SPHERE  1 =  0.1592112
:DTO002: DIFFERENCE IN SPHERE  2 =  0.0548333

:DIS  :  CHARGE DISTANCE       (  0.159211 for atom    1 spin 1)       0.107022
 
******************************************************
* MULTISECANT MIXING VER7 RELEASE 7.1.2              *
* Standard Mode with controls                        *
* Upper Bound on PW scaling active                   *
* Regularization       1.000E-04                     *
* Greed Lower Bound    2.500E-02                     *
* Trust Upper Limit    1.200E+01                     *
* Charge change trust active                         *
* Max Number of Memory Steps    8                    *
******************************************************
 
:PLANE:  INTERSTITIAL TOTAL      1.44829 DISTAN  2.850E+01 % 
:CHARG:  CLM CHARGE   /ATOM    157.74888 DISTAN  6.612E-01 % 
 
Step History
      DMIX        Red     Pred      Trust     Lambda    MagRel    MagAbs     Beta
  1  3.50E-02 -1.00E+00  1.00E+00 -1.00E+01  1.00E+00  3.50E-02  3.50E-02  1.00E+00
  2  2.50E-02  9.68E-01  1.00E+00 -1.00E+01  1.00E+00  2.50E-02  8.45E-02  1.00E+00
  3  6.25E-02  9.34E-01  1.00E+00  2.18E-01  1.27E+00  6.25E-02  2.84E-01  1.00E+00
  4  6.57E-02 -1.00E+00  7.50E-01 -1.00E+01  1.00E+00  2.18E-01  9.16E-01  1.00E+00
  
:NORMS:  1/Froebius, Min, Max, Used   0.7610E+00  0.3566E+00  0.8518E+00  0.7614E+00
:INFO :  Number of Memory Steps    3 Skipping    0
:INFO :  SLambda=    1.1391252  Max    1.1391252

Eigenvalues, unscaled except for SY+YY
   #     SY Real        SY Imag          SS             YY         SY+YY Real      SY+YY Imag
   1   2.091343E+00   0.000000E+00   1.737160E+00   2.996750E+00   5.378899E+00   0.000000E+00
   2   1.064182E-16   0.000000E+00   1.784883E-04   3.247912E-03   1.942224E-06   0.000000E+00
   3   6.847405E-04   0.000000E+00  -5.122855E-17   1.824177E-06   4.180347E-03   0.000000E+00
 
:INFO :  Singular value  5.379E+00 Weight  1.000E+00 Projection  1.720E+00
:INFO :  Singular value  4.180E-03 Weight  9.949E-01 Projection -2.076E+01
:INFO :  Singular value  1.942E-06 Weight  4.200E-05 Projection -2.889E-02
:RANK :  ACTIVE   1.99/3  =  66.50 %
 
:TRUST:  Step 5.35E-01  Charge 3.50E-02 (e)
:DTRUS:  Lambda    2.448E+00 Increment    7.276E-12 Iterations   112 DMIX  0.0667
:INFOA:  Angle SubSpace to MSR1      0.91
:DIRM :  MEMORY  3/8  RESCALE    5.57 RED  0.75 PRED  0.75 NEXT  0.50 
:INFO :  Limited by Atoms F by Step T

:DIRP :  |MSR1|= 1.230E+00 |PRATT|= 2.301E+00 ANGLE=   0.2 DEGREES
:DIRQ :  |MSR1|= 1.118E+00 |PRATT|= 2.086E+00 ANGLE=   0.6 DEGREES
:DIRT :  |MSR1|= 1.662E+00 |PRATT|= 3.106E+00 ANGLE=   0.4 DEGREES
:MIX  :   MSE1   REGULARIZATION: 3.00E-04  GREED: 0.0775  LMStep 0.63 0.535 Step           
     
       CHARGES OF MIXED CHARGE DENSITY
:CTO   : INTERSTITIAL CHARGE =     6.334287
:CTO001: CHARGE SPHERE  1    =    24.950317
:CTO002: CHARGE SPHERE  2    =    31.882539

:NEC03: NUCLEAR AND ELECTRONIC CHARGE    120.00000   120.00000

PW CHANGE     H    K    L      Current       Change    Residue
:PTO001:      0    0    0  4.01169854E-02 -3.074E-03 -5.743E-03
:PTO002:      0    0   -1  1.52162285E-02 -2.508E-03 -4.751E-03
:PTO004:     -1    0   -1 -8.99315423E-02  7.312E-03  1.362E-02
:PTO005:      0    0   -2 -1.09116161E-02 -8.237E-04 -1.561E-03
:PTO006:     -1   -1    0 -2.23875294E-02 -1.820E-03 -3.431E-03
:PTO007:     -1   -1   -1  2.33628310E-02 -1.037E-02 -1.937E-02
:PTO008:     -1    0   -2  9.83501171E-03 -1.927E-03 -3.550E-03
:PTO009:     -1   -1   -2  2.91578616E-02 -1.321E-02 -2.470E-02
:PTO010:     -2    0    0 -1.38687829E-02  6.446E-03  1.205E-02
:PTO011:      0    0   -3  2.65831886E-03 -2.322E-03 -4.335E-03
:PTO012:     -2    0   -1  1.77640410E-03  7.121E-03  1.332E-02
:PTO014:     -1    0   -3  1.06791135E-02 -4.658E-03 -8.716E-03

:ENE  : ********** TOTAL ENERGY IN Ry =       -14790.70271534

       TOTAL FORCE IN mRy/a.u. = |F|     Fx             Fy             Fz     with/without FOR in case.in2
:FOR001:   1.ATOM          0.000          0.000          0.000          0.000 partial forces
:FOR002:   2.ATOM        177.966          0.000          0.000       -177.966 partial forces
       TOTAL FORCE WITH RESPECT TO GLOBAL CARTESIAN COORDINATES:
:FCA001:   1.ATOM                         0.000          0.000          0.000 partial forces
:FCA002:   2.ATOM                         0.000          0.000       -177.966 partial forces
       TOTAL FORCE WITH RESPECT TO THE GLOBAL COORDINATE SYSTEM:
:FGL001:   1.ATOM                 0.000000000     0.000000000     0.000000000 partial forces
:FGL002:   2.ATOM                 0.000000000     0.000000000  -177.966315633 partial forces
 Flat Integration
 New Mode for Coulomb Integral
 Consistent 3/8+Simpson combinations
 Extension of core to zero
 LDM version in phi
 Fifth-order quadrature in outwin


            ---------
:ITE005:  5. ITERATION
            ---------

:NATO :    2 INDEPENDENT AND    4 TOTAL ATOMS IN UNITCELL
       SUBSTANCE: FeSe structure                                              

       LATTICE                      = P   
:POT  : POTENTIAL OPTION EX_LDA EC_LDA VX_LDA VC_LDA
:LAT  : LATTICE CONSTANTS=  7.12143  7.12143 10.43015    1.571    1.571    1.571
:VOL  : UNIT CELL VOLUME =     528.96326
       MODE OF CALCULATION IS       = RELA
       NON-SPINPOLARIZED CALCULATION
:IFFT  : FFT-parameters:   60   60   80 Factor: 2.00
       ATOMNUMBER=  1 Fe  2+     VCOUL-ZERO =  0.32258E+00
:EFG001:                        EFG         =    -0.45495   *10**21  V / m**2
                               V20  TOT/SRF=    -0.39400    -0.00433
                               V22  TOT/SRF=     0.00000     0.00000
                               V22M TOT/SRF=     0.00000     0.00000
                               V21  TOT/SRF=     0.00000     0.00000
                               V21M TOT/SRF=     0.00000     0.00000

              0.22748    0.00000    0.00000        0.22748    0.00000    0.00000
              0.00000    0.22748    0.00000        0.00000    0.22748    0.00000
              0.00000    0.00000   -0.45495        0.00000    0.00000   -0.45495

         MAIN DIRECTIONS OF THE EFG   1.0000  0.0000  0.0000
                                      0.0000  1.0000  0.0000
                                      0.0000  0.0000  1.0000
:ANG001:  ANGLE WITH OLD X-AXIS =         0.0

:ETA001:                         ASYMM. ETA =     0.00000


       ATOMNUMBER=  2 Se  2-     VCOUL-ZERO =  0.18502E+00
:EFG002:                        EFG         =    -3.91600   *10**21  V / m**2
                               V20  TOT/SRF=    -3.39135     0.00962
                               V22  TOT/SRF=     0.00000     0.00000
                               V22M TOT/SRF=     0.00000     0.00000
                               V21  TOT/SRF=     0.00000     0.00000
                               V21M TOT/SRF=     0.00000     0.00000

              1.95800    0.00000    0.00000        1.95800    0.00000    0.00000
              0.00000    1.95800    0.00000        0.00000    1.95800    0.00000
              0.00000    0.00000   -3.91600        0.00000    0.00000   -3.91600

         MAIN DIRECTIONS OF THE EFG   1.0000  0.0000  0.0000
                                      0.0000  1.0000  0.0000
                                      0.0000  0.0000  1.0000
:ANG002:  ANGLE WITH OLD X-AXIS =         0.0

:ETA002:                         ASYMM. ETA =     0.00000


     HELLMANN-FEYNMAN-FORCE IN mRy/a.u. = |F|  Fx       Fy             Fz
:FHF001:   1.ATOM      0.000000000000      0.000000000000      0.000000000000      0.000000000000

     HELLMANN-FEYNMAN-FORCE IN mRy/a.u. = |F|  Fx       Fy             Fz
:FHF002:   2.ATOM    261.682062448034      0.000000000000      0.000000000000   -261.682062448034

:FIT001: LUSE= 13 SIGMA OF V-XC FIT FOR ATOM  1  0.2797891E-02
:FIT001: LUSE= 13 SIGMA OF V-XC FIT FOR ATOM  1  0.2797891E-02
:FIT002: LUSE= 13 SIGMA OF V-XC FIT FOR ATOM  2  0.5346457E-03
:FIT002: LUSE= 13 SIGMA OF V-XC FIT FOR ATOM  2  0.5346457E-03
:DEN  : DENSITY INTEGRAL  =         -6214.13599889   (Ry)
       ELS_POTENTIAL_AT Z=0 and Z=0.5:  -0.61106   0.59008
       ELS_POTENTIAL_AT Y=0 and Y=0.5:   0.00000   0.00000
:VZERO:v0,v0c,v0x  -1.42674  -0.61106  -0.81568 v5,v5c,v5x   0.06856   0.59008  -0.52152
:VZERY:v0,v0c,v0x  -0.71205   0.00000  -0.71205 v5,v5c,v5x  -0.71205   0.00000  -0.71205
:VZERX:v0,v0c,v0x   0.04834   0.73208  -0.68374 v5,v5c,v5x   0.04834   0.73208  -0.68374
:LMAX-WF:   10   Non-Spherical LMAX:   4

          ATOMIC SPHERE DEPENDENT PARAMETERS FOR ATOM  Fe  2+    
:e__0001: OVERALL ENERGY PARAMETER IS    0.1771
          OVERALL BASIS SET ON ATOM IS LAPW
:E1_0001: E( 1)=    0.1771
             APW+lo
:E1_0001: E( 1)=   -3.5062   E(BOTTOM)=   -3.557   E(TOP)=   -3.455  1  2   139
             LOCAL ORBITAL
:E2_0001: E( 2)=    0.2722   E(BOTTOM)=   -0.006   E(TOP)=    0.551  0  1   128
             APW+lo
:E0_0001: E( 0)=    0.1771
             APW+lo

          ATOMIC SPHERE DEPENDENT PARAMETERS FOR ATOM  Se  2-    
:e__0002: OVERALL ENERGY PARAMETER IS    0.1771
          OVERALL BASIS SET ON ATOM IS LAPW
:E2_0002: E( 2)=    0.1771
             APW+lo
:E2_0002: E( 2)=   -3.2033   E(BOTTOM)=   -3.227   E(TOP)=   -3.179  0  1   134
             LOCAL ORBITAL
:E0_0002: E( 0)=    0.5771
             APW+lo
:E0_0002: E( 0)=   -0.3774   E(BOTTOM)=   -1.505   E(TOP)=    0.750  3  4   215
             LOCAL ORBITAL
:E1_0002: E( 1)=    0.1771
             APW+lo

       K=   0.08333   0.08333   0.12500            1
:RKM  : MATRIX SIZE   343LOs:  54  RKM= 6.96  WEIGHT= 8.00  PGR:    
       EIGENVALUES ARE:
:EIG00001:      -3.5025675   -3.5018649   -3.4942944   -3.4935858   -3.4907037
:EIG00006:      -3.4888511   -3.1982617   -3.1980527   -3.1975082   -3.1974486
:EIG00011:      -3.1969809   -3.1969508   -3.1968733   -3.1968289   -3.1962363
:EIG00016:      -3.1959937   -0.6949822   -0.6184366   -0.0520640    0.0713154
:EIG00021:       0.0892481    0.0930977    0.1262306    0.1390643    0.1899119
:EIG00026:       0.3025060    0.3135594    0.3256489    0.3627903    0.3640781
:EIG00031:       0.4125704    0.4179915    0.4866463    0.4928953    0.6117767
:EIG00036:       0.7425734    0.8023948    0.8612766    0.8928910    0.9163741
:EIG00041:       1.1522806    1.1908999    1.2585939    1.2715029    1.3234092
:EIG00046:       1.3586834    1.4116094    1.4619631    1.4879023    1.4981624
 
:EIG00051:       1.5575659    1.5966782    1.7262185    1.7646293    1.8047086
       ********************************************************

:KPT   :      NUMBER OF K-POINTS:    12
:GAP (global)   :    0.0    Ry =     0.0   eV (metal)
         Bandranges (emin - emax) and occupancy:
:BAN00022:  22    0.069372    0.115537  2.00000000
:BAN00023:  23    0.104781    0.147773  2.00000000
:BAN00024:  24    0.121317    0.159976  2.00000000
:BAN00025:  25    0.189852    0.247897  2.00000000
:BAN00026:  26    0.237428    0.302506  2.00000000
:BAN00027:  27    0.247625    0.317019  2.00000000
:BAN00028:  28    0.254755    0.339560  2.00000000
:BAN00029:  29    0.313321    0.363661  1.88652480
:BAN00030:  30    0.315750    0.367302  1.85732716
:BAN00031:  31    0.341207    0.417982  0.17192847
:BAN00032:  32    0.346840    0.424060  0.08421957
:BAN00033:  33    0.425061    0.486646  0.00000000
:BAN00034:  34    0.425644    0.492895  0.00000000
:BAN00035:  35    0.611777    0.752829  0.00000000
:BAN00036:  36    0.698786    0.815774  0.00000000
:BAN00037:  37    0.760515    0.887417  0.00000000
        Energy to separate low and high energystates:   -0.10206


:NOE  : NUMBER OF ELECTRONS          =  60.000

:FER  : F E R M I - ENERGY(TETRAH.M.)=   0.3580984725
:GMA  : POTENTIAL AND CHARGE CUT-OFF  12.00 Ry**.5




:POS001: ATOM   -1 X,Y,Z = 0.25000 0.75000 0.00000  MULT= 2  ZZ= 26.000  Fe  2+    

       LMMAX  8
       LM=   0 0  2 0 -3 2  4 0  4 4 -5 2  6 0  6 4

:CHA001: TOTAL VALENCE CHARGE INSIDE SPHERE   1 =  12.9507    (RMT=  2.3100 )
:PCS001: PARTIAL CHARGES SPHERE =  1 S,P,D,F,PZ,PXY,,D-Z2,D-XY,D-X2Y2,D-XZ,YZ 
:QTL001: 0.3168 6.3301 6.2719 0.0252 2.0937 4.2364 0.0000 1.4072 1.2914 1.1962 2.3772 0.0000
        Q-s-low E-s-low   Q-p-low E-p-low   Q-d-low E-d-low   Q-f-low E-f-low
:EPL001:  0.0456 -0.6637    6.0260 -3.4743    0.0409 -0.6615    0.0046 -0.7812
        Q-s-hi  E-s-hi    Q-p-hi  E-p-hi    Q-d-hi  E-d-hi    Q-f-hi  E-f-hi 
:EPH001:  0.2712  0.0140    0.3041  0.1299    6.2309  0.2504    0.0206  0.1354
:VZZ001: EFG INSIDE SPHERE   1 =     0.043031      UP TO R =   2.31000




:POS002: ATOM   -2 X,Y,Z = 0.75000 0.75000 0.73000  MULT= 2  ZZ= 34.000  Se  2-    

       LMMAX 10
       LM=   0 0  1 0  2 0  3 0  4 0  4 4  5 0  5 4  6 0  6 4

:CHA002: TOTAL VALENCE CHARGE INSIDE SPHERE   2 =  13.8936    (RMT=  2.2000 )
:PCS002: PARTIAL CHARGES SPHERE =  2 S,P,D,F,PZ,PXY,,D-Z2,D-XY,D-X2Y2,D-XZ,YZ 
:QTL002: 1.4906 2.324510.0594 0.0151 0.7976 1.5270 0.0000 2.0122 2.0120 2.0121 4.0231 0.0000
        Q-s-low E-s-low   Q-p-low E-p-low   Q-d-low E-d-low   Q-f-low E-f-low
:EPL002:  1.4158 -0.6359    0.0090 -0.8338    9.9868 -3.1972    0.0003 -2.8607
        Q-s-hi  E-s-hi    Q-p-hi  E-p-hi    Q-d-hi  E-d-hi    Q-f-hi  E-f-hi 
:EPH002:  0.0748  0.0894    2.3155  0.0825    0.0726  0.2101    0.0148  0.2702
:VZZ002: EFG INSIDE SPHERE   2 =    -5.851391      UP TO R =   2.20000

:CHA  : TOTAL VALENCE CHARGE INSIDE UNIT CELL =      60.000000

:SUM  : SUM OF EIGENVALUES =        -104.186756416


        1.ATOM      Fe  2+                5 CORE STATES
:1S 001: 1S                -512.292480181 Ry
:2S 001: 2S                 -59.213563315 Ry
:2PP001: 2P*                -51.017698462 Ry
:2P 001: 2P                 -50.102314497 Ry
:3S 001: 3S                  -5.959212872 Ry

        2.ATOM      Se  2-                7 CORE STATES
       CORE-FORCE in mRy/a.u. = |F|      Fx             Fy             Fz
:FCO002:   2.ATOM    450.333947922350      0.000000000000      0.000000000000    450.333947922350

:1S 002: 1S                -916.516254335 Ry
:2S 002: 2S                -117.173456901 Ry
:2PP002: 2P*               -105.149137628 Ry
:2P 002: 2P                -102.085830765 Ry
:3S 002: 3S                 -14.899676930 Ry
:3PP002: 3P*                -10.786833522 Ry
:3P 002: 3P                 -10.354268587 Ry
:CINT001 Core Integral Atom   1   11.998611
:CINT002 Core Integral Atom   2   17.999776

       DENSITY AT NUCLEUS
        JATOM        VALENCE       SEMI-CORE          CORE           TOTAL
:RTO001:   1        5.553832        0.000000    15215.607702    15221.161533
:RTO002:   2       58.814677        0.000000    40787.788482    40846.603159
     
       CHARGES OF NEW CHARGE DENSITY
:NTO   : INTERSTITIAL CHARGE =     6.311338
:NTO001: CHARGE SPHERE  1    =    24.949295
:NTO002: CHARGE SPHERE  2    =    31.893414

:NEC01: NUCLEAR AND ELECTRONIC CHARGE    120.00000   119.99675
     
       CHARGES OF OLD CHARGE DENSITY
:OTO   : INTERSTITIAL CHARGE =     6.334287
:OTO001: CHARGE SPHERE  1    =    24.950317
:OTO002: CHARGE SPHERE  2    =    31.882539

:NEC02: NUCLEAR AND ELECTRONIC CHARGE    120.00000   120.00000
     
       CONVERGENCE TEST
:DTO001: DIFFERENCE IN SPHERE  1 =  0.1191397
:DTO002: DIFFERENCE IN SPHERE  2 =  0.0333474

:DIS  :  CHARGE DISTANCE       (  0.119140 for atom    1 spin 1)       0.076244
 
******************************************************
* MULTISECANT MIXING VER7 RELEASE 7.1.2              *
* Standard Mode with controls                        *
* Upper Bound on PW scaling active                   *
* Regularization       1.000E-04                     *
* Greed Lower Bound    2.500E-02                     *
* Trust Upper Limit    1.200E+01                     *
* Charge change trust active                         *
* Max Number of Memory Steps    8                    *
******************************************************
 
:PLANE:  INTERSTITIAL TOTAL      1.30516 DISTAN  1.499E+01 % 
:CHARG:  CLM CHARGE   /ATOM    157.72760 DISTAN  2.780E-01 % 
 
Step History
      DMIX        Red     Pred      Trust     Lambda    MagRel    MagAbs     Beta
  1  3.50E-02 -1.00E+00  1.00E+00 -1.00E+01  1.00E+00  3.50E-02  3.50E-02  1.00E+00
  2  2.50E-02  9.68E-01  1.00E+00 -1.00E+01  1.00E+00  2.50E-02  8.45E-02  1.00E+00
  3  6.25E-02  9.34E-01  1.00E+00  2.18E-01  1.27E+00  6.25E-02  2.84E-01  1.00E+00
  4  6.57E-02  7.46E-01  7.50E-01  5.35E-01  1.14E+00  2.18E-01  9.16E-01  1.00E+00
  5  7.75E-02 -1.00E+00  4.95E-01 -1.00E+01  1.00E+00  5.35E-01  1.66E+00  1.00E+00
  
:NORMS:  1/Froebius, Min, Max, Used   0.8234E+00  0.3520E+00  0.9333E+00  0.8240E+00
:INFO :  Number of Memory Steps    4 Skipping    0
:INFO :  SLambda=    0.9154987  Max    0.9154987

Eigenvalues, unscaled except for SY+YY
   #     SY Real        SY Imag          SS             YY         SY+YY Real      SY+YY Imag
   1   3.089739E+00   0.000000E+00   2.710649E+00   3.991807E+00   6.820099E+00   0.000000E+00
   2   3.374156E-03   0.000000E+00   1.341940E-03   7.865106E-03   1.131268E-02   0.000000E+00
   3   1.427768E-16   0.000000E+00   4.151048E-06   3.280863E-04   1.697425E-07   0.000000E+00
   4   3.652314E-05   0.000000E+00   2.111378E-16   1.694768E-07   3.629119E-04   0.000000E+00
 
:INFO :  Singular value  6.820E+00 Weight  1.000E+00 Projection  5.318E-01
:INFO :  Singular value  1.131E-02 Weight  9.988E-01 Projection -1.119E+01
:INFO :  Singular value  3.629E-04 Weight  4.525E-01 Projection  1.169E+00
:INFO :  Singular value  1.697E-07 Weight  0.000E+00 Projection  0.000E+00
:RANK :  ACTIVE   2.45/4  =  61.28 %
 
:TRUST:  Step 1.11E+00  Charge 3.50E-02 (e)
:DIRM :  MEMORY  4/8  RESCALE    5.37 RED  0.45 PRED  0.50 NEXT  0.23 
:DIRP :  |MSR1|= 9.463E-01 |PRATT|= 1.051E+00 ANGLE=   2.5 DEGREES
:DIRQ :  |MSR1|= 7.966E-01 |PRATT|= 8.771E-01 ANGLE=  13.9 DEGREES
:DIRT :  |MSR1|= 1.237E+00 |PRATT|= 1.369E+00 ANGLE=   9.1 DEGREES
:MIX  :   MSD1   REGULARIZATION: 3.99E-04  GREED: 0.1023  Newton 1.00 0.904                
     
       CHARGES OF MIXED CHARGE DENSITY
:CTO   : INTERSTITIAL CHARGE =     6.335868
:CTO001: CHARGE SPHERE  1    =    24.941986
:CTO002: CHARGE SPHERE  2    =    31.890080

:NEC03: NUCLEAR AND ELECTRONIC CHARGE    120.00000   120.00000

PW CHANGE     H    K    L      Current       Change    Residue
:PTO001:      0    0    0  3.75029146E-02 -2.614E-03 -3.009E-03
:PTO002:      0    0   -1  1.22796971E-02 -2.937E-03 -3.680E-03
:PTO004:     -1    0   -1 -8.44839403E-02  5.448E-03  5.968E-03
:PTO005:      0    0   -2 -1.17770318E-02 -8.654E-04 -1.022E-03
:PTO006:     -1   -1    0 -2.39801277E-02 -1.593E-03 -1.767E-03
:PTO007:     -1   -1   -1  1.55493796E-02 -7.813E-03 -8.433E-03
:PTO008:     -1    0   -2  9.02232116E-03 -8.127E-04 -5.815E-04
:PTO009:     -1   -1   -2  1.87961724E-02 -1.036E-02 -1.136E-02
:PTO010:     -2    0    0 -8.92265941E-03  4.946E-03  5.381E-03
:PTO011:      0    0   -3  9.56410896E-04 -1.702E-03 -1.801E-03
:PTO012:     -2    0   -1  7.25698447E-03  5.481E-03  5.927E-03
:PTO014:     -1    0   -3  6.93959500E-03 -3.740E-03 -4.120E-03

:ENE  : ********** TOTAL ENERGY IN Ry =       -14790.69532268

       TOTAL FORCE IN mRy/a.u. = |F|     Fx             Fy             Fz     with/without FOR in case.in2
:FOR001:   1.ATOM          0.000          0.000          0.000          0.000 partial forces
:FOR002:   2.ATOM        188.652          0.000          0.000        188.652 partial forces
       TOTAL FORCE WITH RESPECT TO GLOBAL CARTESIAN COORDINATES:
:FCA001:   1.ATOM                         0.000          0.000          0.000 partial forces
:FCA002:   2.ATOM                         0.000          0.000        188.652 partial forces
       TOTAL FORCE WITH RESPECT TO THE GLOBAL COORDINATE SYSTEM:
:FGL001:   1.ATOM                 0.000000000     0.000000000     0.000000000 partial forces
:FGL002:   2.ATOM                 0.000000000     0.000000000   188.651885474 partial forces
 Flat Integration
 New Mode for Coulomb Integral
 Consistent 3/8+Simpson combinations
 Extension of core to zero
 LDM version in phi
 Fifth-order quadrature in outwin


            ---------
:ITE006:  6. ITERATION
            ---------

:NATO :    2 INDEPENDENT AND    4 TOTAL ATOMS IN UNITCELL
       SUBSTANCE: FeSe structure                                              

       LATTICE                      = P   
:POT  : POTENTIAL OPTION EX_LDA EC_LDA VX_LDA VC_LDA
:LAT  : LATTICE CONSTANTS=  7.12143  7.12143 10.43015    1.571    1.571    1.571
:VOL  : UNIT CELL VOLUME =     528.96326
       MODE OF CALCULATION IS       = RELA
       NON-SPINPOLARIZED CALCULATION
:IFFT  : FFT-parameters:   60   60   80 Factor: 2.00
       ATOMNUMBER=  1 Fe  2+     VCOUL-ZERO =  0.31093E+00
:EFG001:                        EFG         =    -0.36298   *10**21  V / m**2
                               V20  TOT/SRF=    -0.31435    -0.01853
                               V22  TOT/SRF=     0.00000     0.00000
                               V22M TOT/SRF=     0.00000     0.00000
                               V21  TOT/SRF=     0.00000     0.00000
                               V21M TOT/SRF=     0.00000     0.00000

              0.18149    0.00000    0.00000        0.18149    0.00000    0.00000
              0.00000    0.18149    0.00000        0.00000    0.18149    0.00000
              0.00000    0.00000   -0.36298        0.00000    0.00000   -0.36298

         MAIN DIRECTIONS OF THE EFG   1.0000  0.0000  0.0000
                                      0.0000  1.0000  0.0000
                                      0.0000  0.0000  1.0000
:ANG001:  ANGLE WITH OLD X-AXIS =         0.0

:ETA001:                         ASYMM. ETA =     0.00000


       ATOMNUMBER=  2 Se  2-     VCOUL-ZERO =  0.18430E+00
:EFG002:                        EFG         =    -5.81463   *10**21  V / m**2
                               V20  TOT/SRF=    -5.03562     0.00748
                               V22  TOT/SRF=     0.00000     0.00000
                               V22M TOT/SRF=     0.00000     0.00000
                               V21  TOT/SRF=     0.00000     0.00000
                               V21M TOT/SRF=     0.00000     0.00000

              2.90731    0.00000    0.00000        2.90731    0.00000    0.00000
              0.00000    2.90731    0.00000        0.00000    2.90731    0.00000
              0.00000    0.00000   -5.81463        0.00000    0.00000   -5.81463

         MAIN DIRECTIONS OF THE EFG   1.0000  0.0000  0.0000
                                      0.0000  1.0000  0.0000
                                      0.0000  0.0000  1.0000
:ANG002:  ANGLE WITH OLD X-AXIS =         0.0

:ETA002:                         ASYMM. ETA =     0.00000


     HELLMANN-FEYNMAN-FORCE IN mRy/a.u. = |F|  Fx       Fy             Fz
:FHF001:   1.ATOM      0.000000000000      0.000000000000      0.000000000000      0.000000000000

     HELLMANN-FEYNMAN-FORCE IN mRy/a.u. = |F|  Fx       Fy             Fz
:FHF002:   2.ATOM   1318.542345830544      0.000000000000      0.000000000000  -1318.542345830544

:FIT001: LUSE= 13 SIGMA OF V-XC FIT FOR ATOM  1  0.3051318E-02
:FIT001: LUSE= 13 SIGMA OF V-XC FIT FOR ATOM  1  0.3051318E-02
:FIT002: LUSE= 13 SIGMA OF V-XC FIT FOR ATOM  2  0.6492173E-03
:FIT002: LUSE= 13 SIGMA OF V-XC FIT FOR ATOM  2  0.6492173E-03
:DEN  : DENSITY INTEGRAL  =         -6214.61882978   (Ry)
       ELS_POTENTIAL_AT Z=0 and Z=0.5:  -0.58750   0.59062
       ELS_POTENTIAL_AT Y=0 and Y=0.5:   0.00000   0.00000
:VZERO:v0,v0c,v0x  -1.35143  -0.58750  -0.76393 v5,v5c,v5x   0.06940   0.59062  -0.52122
:VZERY:v0,v0c,v0x  -0.69978   0.00000  -0.69978 v5,v5c,v5x  -0.69978   0.00000  -0.69978
:VZERX:v0,v0c,v0x   0.02464   0.71688  -0.69224 v5,v5c,v5x   0.02464   0.71688  -0.69224
:LMAX-WF:   10   Non-Spherical LMAX:   4

          ATOMIC SPHERE DEPENDENT PARAMETERS FOR ATOM  Fe  2+    
:e__0001: OVERALL ENERGY PARAMETER IS    0.1644
          OVERALL BASIS SET ON ATOM IS LAPW
:E1_0001: E( 1)=    0.1644
             APW+lo
:E1_0001: E( 1)=   -3.5073   E(BOTTOM)=   -3.559   E(TOP)=   -3.456  1  2   141
             LOCAL ORBITAL
:E2_0001: E( 2)=    0.2683   E(BOTTOM)=   -0.013   E(TOP)=    0.549  0  1   126
             APW+lo
:E0_0001: E( 0)=    0.1644
             APW+lo

          ATOMIC SPHERE DEPENDENT PARAMETERS FOR ATOM  Se  2-    
:e__0002: OVERALL ENERGY PARAMETER IS    0.1644
          OVERALL BASIS SET ON ATOM IS LAPW
:E2_0002: E( 2)=    0.1644
             APW+lo
:E2_0002: E( 2)=   -3.2045   E(BOTTOM)=   -3.229   E(TOP)=   -3.180  0  1   138
             LOCAL ORBITAL
:E0_0002: E( 0)=    0.5644
             APW+lo
:E0_0002: E( 0)=   -0.3802   E(BOTTOM)=   -1.507   E(TOP)=    0.747  3  4   210
             LOCAL ORBITAL
:E1_0002: E( 1)=    0.1644
             APW+lo

       K=   0.08333   0.08333   0.12500            1
:RKM  : MATRIX SIZE   343LOs:  54  RKM= 6.96  WEIGHT= 8.00  PGR:    
       EIGENVALUES ARE:
:EIG00001:      -3.5048887   -3.5041773   -3.4965215   -3.4958043   -3.4890005
:EIG00006:      -3.4871222   -3.1997795   -3.1995653   -3.1990966   -3.1990364
:EIG00011:      -3.1979871   -3.1979596   -3.1978783   -3.1978313   -3.1971350
:EIG00016:      -3.1968957   -0.7004970   -0.6235033   -0.0576494    0.0652119
:EIG00021:       0.0830009    0.0876475    0.1204986    0.1335471    0.1825428
:EIG00026:       0.3016782    0.3117243    0.3221041    0.3588842    0.3596058
:EIG00031:       0.4089302    0.4138884    0.4839925    0.4905680    0.6035856
:EIG00036:       0.7355725    0.7978239    0.8546526    0.8849383    0.9104364
:EIG00041:       1.1489868    1.1836615    1.2529179    1.2664235    1.3170813
:EIG00046:       1.3510917    1.4050559    1.4560116    1.4809975    1.4919767
 
:EIG00051:       1.5517994    1.5924824    1.7196981    1.7561849    1.7971823
       ********************************************************

:KPT   :      NUMBER OF K-POINTS:    12
:GAP (global)   :    0.0    Ry =     0.0   eV (metal)
         Bandranges (emin - emax) and occupancy:
:BAN00022:  22    0.064487    0.110080  2.00000000
:BAN00023:  23    0.099299    0.141674  2.00000000
:BAN00024:  24    0.116070    0.154138  2.00000000
:BAN00025:  25    0.182478    0.241382  2.00000000
:BAN00026:  26    0.232860    0.301678  2.00000000
:BAN00027:  27    0.240625    0.315293  2.00000000
:BAN00028:  28    0.246998    0.334997  2.00000000
:BAN00029:  29    0.308614    0.358905  1.88979617
:BAN00030:  30    0.312057    0.363369  1.86096974
:BAN00031:  31    0.338127    0.415266  0.17092218
:BAN00032:  32    0.343713    0.420900  0.07832127
:BAN00033:  33    0.422979    0.483993  0.00000000
:BAN00034:  34    0.423601    0.490568  0.00000000
:BAN00035:  35    0.603586    0.746895  0.00000000
:BAN00036:  36    0.693432    0.808768  0.00000000
:BAN00037:  37    0.755567    0.880763  0.00000000
        Energy to separate low and high energystates:   -0.10765


:NOE  : NUMBER OF ELECTRONS          =  60.000

:FER  : F E R M I - ENERGY(TETRAH.M.)=   0.3539834923
:GMA  : POTENTIAL AND CHARGE CUT-OFF  12.00 Ry**.5




[...]
   8   5.811810E-09   0.000000E+00   1.515606E-08   1.369061E-06   3.191165E-08   0.000000E+00
   9   1.373472E-07   0.000000E+00   2.326243E-09   2.308318E-08   1.524288E-06   0.000000E+00
 
:INFO :  Singular value  1.092E+01 Weight  1.000E+00 Projection  2.632E-03
:INFO :  Singular value  4.827E+00 Weight  1.000E+00 Projection  1.796E-02
:INFO :  Singular value  2.225E+00 Weight  1.000E+00 Projection  7.913E-03
:INFO :  Singular value  2.158E-01 Weight  1.000E+00 Projection  6.163E-02
:INFO :  Singular value  3.201E-02 Weight  9.998E-01 Projection  1.972E-01
:INFO :  Singular value  2.045E-02 Weight  9.994E-01 Projection  1.511E-01
:INFO :  Singular value  8.948E-06 Weight  3.225E-04 Projection -6.042E-05
:INFO :  Singular value  1.523E-06 Weight  0.000E+00 Projection  0.000E+00
:INFO :  Singular value  3.190E-08 Weight  0.000E+00 Projection  0.000E+00
:RANK :  ACTIVE   6.00/9  =  66.66 %
 
:DLIM :  Beta Active  7.600E-01
:TRUST:  Step 2.02E+00  Charge 3.50E-02 (e)
:DIRM :  MEMORY  9/8  RESCALE   12.11 RED  0.52 PRED  0.45 NEXT  0.25 BETA  0.76
:DIRP :  |MSR1|= 2.327E-03 |PRATT|= 2.083E-02 ANGLE=  56.3 DEGREES
:DIRQ :  |MSR1|= 3.022E-02 |PRATT|= 5.612E-02 ANGLE=  55.2 DEGREES
:DIRT :  |MSR1|= 3.031E-02 |PRATT|= 5.986E-02 ANGLE=  56.8 DEGREES
:MIX  :   MSE1   REGULARIZATION: 4.98E-04  GREED: 0.3500  Newton 1.00 0.506                
     
       CHARGES OF MIXED CHARGE DENSITY
:CTO   : INTERSTITIAL CHARGE =     6.345010
:CTO001: CHARGE SPHERE  1    =    24.940553
:CTO002: CHARGE SPHERE  2    =    31.886942

:NEC03: NUCLEAR AND ELECTRONIC CHARGE    120.00000   120.00000

PW CHANGE     H    K    L      Current       Change    Residue
:PTO001:      0    0    0  3.72095353E-02 -9.938E-07 -4.451E-05
:PTO002:      0    0   -1  1.19292964E-02  6.774E-06  2.657E-05
:PTO004:     -1    0   -1 -8.37368315E-02  6.850E-06  1.110E-04
:PTO005:      0    0   -2 -1.18641097E-02  5.556E-06  3.241E-05
:PTO006:     -1   -1    0 -2.40816076E-02  9.325E-07  4.831E-05
:PTO007:     -1   -1   -1  1.46105216E-02  2.383E-06 -1.357E-05
:PTO008:     -1    0   -2  8.90471758E-03 -7.621E-07 -3.864E-05
:PTO009:     -1   -1   -2  1.77500405E-02  4.359E-06 -1.456E-05
:PTO010:     -2    0    0 -8.38771987E-03  1.662E-06  8.434E-06
:PTO011:      0    0   -3  7.97840825E-04  2.621E-06  1.005E-06
:PTO012:     -2    0   -1  7.68944910E-03  3.426E-06 -1.245E-06
:PTO014:     -1    0   -3  6.66479813E-03  7.615E-09 -7.430E-06

:ENE  : *WARNING** TOTAL ENERGY IN Ry =       -14790.69239207

       TOTAL FORCE IN mRy/a.u. = |F|     Fx             Fy             Fz     with/without FOR in case.in2
:FOR001:   1.ATOM          0.000          0.000          0.000          0.000 partial forces
:FOR002:   2.ATOM        145.506          0.000          0.000       -145.506 partial forces
       TOTAL FORCE WITH RESPECT TO GLOBAL CARTESIAN COORDINATES:
:FCA001:   1.ATOM                         0.000          0.000          0.000 partial forces
:FCA002:   2.ATOM                         0.000          0.000       -145.506 partial forces
       TOTAL FORCE WITH RESPECT TO THE GLOBAL COORDINATE SYSTEM:
:FGL001:   1.ATOM                 0.000000000     0.000000000     0.000000000 partial forces
:FGL002:   2.ATOM                 0.000000000     0.000000000  -145.506005740 partial forces

:LABEL1: Calculations in /mnt/wk19/haule/SummerSchool2018/FeSe/FeSe
:LABEL2: on rupc02 at Wed May 30 12:36:54 EDT 2018
:LABEL3: using WIEN2k_16.1 (Release 12/12/2016) in /opt/apps/ompi/wien/wien2k_16
:LABEL4: using the command: run_lapw -NI
 Flat Integration
 New Mode for Coulomb Integral
 Consistent 3/8+Simpson combinations
 Extension of core to zero
 LDM version in phi
 Fifth-order quadrature in outwin


            ---------
:ITE012: 12. ITERATION
            ---------

:NATO :    2 INDEPENDENT AND    4 TOTAL ATOMS IN UNITCELL
       SUBSTANCE: FeSe structure                                              

       LATTICE                      = P   
:POT  : POTENTIAL OPTION EX_LDA EC_LDA VX_LDA VC_LDA
:LAT  : LATTICE CONSTANTS=  7.12143  7.12143 10.43015    1.571    1.571    1.571
:VOL  : UNIT CELL VOLUME =     528.96326
       MODE OF CALCULATION IS       = RELA
       NON-SPINPOLARIZED CALCULATION
:IFFT  : FFT-parameters:   60   60   80 Factor: 2.00
       ATOMNUMBER=  1 Fe  2+     VCOUL-ZERO =  0.30835E+00
:EFG001:                        EFG         =     0.24473   *10**21  V / m**2
                               V20  TOT/SRF=     0.21195    -0.02001
                               V22  TOT/SRF=     0.00000     0.00000
                               V22M TOT/SRF=     0.00000     0.00000
                               V21  TOT/SRF=     0.00000     0.00000
                               V21M TOT/SRF=     0.00000     0.00000

             -0.12237    0.00000    0.00000       -0.12237    0.00000    0.00000
              0.00000   -0.12237    0.00000        0.00000   -0.12237    0.00000
              0.00000    0.00000    0.24473        0.00000    0.00000    0.24473

         MAIN DIRECTIONS OF THE EFG   1.0000  0.0000  0.0000
                                      0.0000  1.0000  0.0000
                                      0.0000  0.0000  1.0000
:ANG001:  ANGLE WITH OLD X-AXIS =         0.0

:ETA001:                         ASYMM. ETA =     0.00000


       ATOMNUMBER=  2 Se  2-     VCOUL-ZERO =  0.18302E+00
:EFG002:                        EFG         =    -5.43744   *10**21  V / m**2
                               V20  TOT/SRF=    -4.70896     0.00985
                               V22  TOT/SRF=     0.00000     0.00000
                               V22M TOT/SRF=     0.00000     0.00000
                               V21  TOT/SRF=     0.00000     0.00000
                               V21M TOT/SRF=     0.00000     0.00000

              2.71872    0.00000    0.00000        2.71872    0.00000    0.00000
              0.00000    2.71872    0.00000        0.00000    2.71872    0.00000
              0.00000    0.00000   -5.43744        0.00000    0.00000   -5.43744

         MAIN DIRECTIONS OF THE EFG   1.0000  0.0000  0.0000
                                      0.0000  1.0000  0.0000
                                      0.0000  0.0000  1.0000
:ANG002:  ANGLE WITH OLD X-AXIS =         0.0

:ETA002:                         ASYMM. ETA =     0.00000


     HELLMANN-FEYNMAN-FORCE IN mRy/a.u. = |F|  Fx       Fy             Fz
:FHF001:   1.ATOM      0.000000000000      0.000000000000      0.000000000000      0.000000000000

     HELLMANN-FEYNMAN-FORCE IN mRy/a.u. = |F|  Fx       Fy             Fz
:FHF002:   2.ATOM   1293.633936103879      0.000000000000      0.000000000000  -1293.633936103879

:FIT001: LUSE= 13 SIGMA OF V-XC FIT FOR ATOM  1  0.3055759E-02
:FIT001: LUSE= 13 SIGMA OF V-XC FIT FOR ATOM  1  0.3055759E-02
:FIT002: LUSE= 13 SIGMA OF V-XC FIT FOR ATOM  2  0.6451839E-03
:FIT002: LUSE= 13 SIGMA OF V-XC FIT FOR ATOM  2  0.6451839E-03
:DEN  : DENSITY INTEGRAL  =         -6214.28051788   (Ry)
       ELS_POTENTIAL_AT Z=0 and Z=0.5:  -0.58493   0.59182
       ELS_POTENTIAL_AT Y=0 and Y=0.5:   0.00000   0.00000
:VZERO:v0,v0c,v0x  -1.34076  -0.58493  -0.75583 v5,v5c,v5x   0.06975   0.59182  -0.52206
:VZERY:v0,v0c,v0x  -0.69846   0.00000  -0.69846 v5,v5c,v5x  -0.69846   0.00000  -0.69846
:VZERX:v0,v0c,v0x   0.02158   0.71519  -0.69361 v5,v5c,v5x   0.02158   0.71519  -0.69361
:LMAX-WF:   10   Non-Spherical LMAX:   4

          ATOMIC SPHERE DEPENDENT PARAMETERS FOR ATOM  Fe  2+    
:e__0001: OVERALL ENERGY PARAMETER IS    0.1515
          OVERALL BASIS SET ON ATOM IS LAPW
:E1_0001: E( 1)=    0.1515
             APW+lo
:E1_0001: E( 1)=   -3.5091   E(BOTTOM)=   -3.560   E(TOP)=   -3.458  1  2   148
             LOCAL ORBITAL
:E2_0001: E( 2)=    0.2665   E(BOTTOM)=   -0.015   E(TOP)=    0.547  0  1   129
             APW+lo
:E0_0001: E( 0)=    0.1515
             APW+lo

          ATOMIC SPHERE DEPENDENT PARAMETERS FOR ATOM  Se  2-    
:e__0002: OVERALL ENERGY PARAMETER IS    0.1515
          OVERALL BASIS SET ON ATOM IS LAPW
:E2_0002: E( 2)=    0.1515
             APW+lo
:E2_0002: E( 2)=   -3.2069   E(BOTTOM)=   -3.231   E(TOP)=   -3.183  0  1   133
             LOCAL ORBITAL
:E0_0002: E( 0)=    0.5515
             APW+lo
:E0_0002: E( 0)=   -0.3820   E(BOTTOM)=   -1.509   E(TOP)=    0.745  3  4   209
             LOCAL ORBITAL
:E1_0002: E( 1)=    0.1515
             APW+lo

       K=   0.04545   0.04545   0.07143            1
:RKM  : MATRIX SIZE   347LOs:  54  RKM= 7.00  WEIGHT= 8.00  PGR:    
       EIGENVALUES ARE:
:EIG00001:      -3.5060926   -3.5058749   -3.4973163   -3.4970945   -3.4919248
:EIG00006:      -3.4899672   -3.2020865   -3.2017961   -3.2013207   -3.2012271
:EIG00011:      -3.2005075   -3.2004888   -3.2003939   -3.2003938   -3.1997124
:EIG00016:      -3.1995133   -0.7077832   -0.6232724   -0.0685197    0.0735864
:EIG00021:       0.0841367    0.0883207    0.1270274    0.1315162    0.1771739
:EIG00026:       0.2992382    0.3084797    0.3416733    0.3609024    0.3621471
:EIG00031:       0.3977481    0.4131358    0.4935809    0.5036596    0.5650981
:EIG00036:       0.7244259    0.7793349    0.8568146    0.8678892    0.8889768
:EIG00041:       1.2039529    1.2522601    1.2834107    1.3071892    1.3160349
:EIG00046:       1.3489888    1.3783815    1.4205194    1.4228751    1.4576174
 
:EIG00051:       1.5493449    1.5571814    1.6671685    1.7046853    1.8124817
       ********************************************************

:KPT   :      NUMBER OF K-POINTS:    84
:GAP (global)   :    0.0    Ry =     0.0   eV (metal)
         Bandranges (emin - emax) and occupancy:
:BAN00022:  22    0.045552    0.115023  2.00000000
:BAN00023:  23    0.094694    0.154912  2.00000000
:BAN00024:  24    0.109004    0.158755  2.00000000
:BAN00025:  25    0.177174    0.262853  2.00000000
:BAN00026:  26    0.221212    0.301919  2.00000000
:BAN00027:  27    0.236961    0.314088  2.00000000
:BAN00028:  28    0.239475    0.348822  2.00000000
:BAN00029:  29    0.300292    0.362201  1.85706180
:BAN00030:  30    0.300292    0.370547  1.83019408
:BAN00031:  31    0.335775    0.435471  0.17745857
:BAN00032:  32    0.337150    0.435471  0.13528554
:BAN00033:  33    0.418442    0.493581  0.00000000
:BAN00034:  34    0.418442    0.503660  0.00000000
:BAN00035:  35    0.565098    0.825248  0.00000000
:BAN00036:  36    0.669653    0.830206  0.00000000
:BAN00037:  37    0.739050    0.935502  0.00000000
        Energy to separate low and high energystates:   -0.11852


:NOE  : NUMBER OF ELECTRONS          =  60.000

:FER  : F E R M I - ENERGY(TETRAH.M.)=   0.3523810188
:GMA  : POTENTIAL AND CHARGE CUT-OFF  12.00 Ry**.5




:POS001: ATOM   -1 X,Y,Z = 0.25000 0.75000 0.00000  MULT= 2  ZZ= 26.000  Fe  2+    

       LMMAX  8
       LM=   0 0  2 0 -3 2  4 0  4 4 -5 2  6 0  6 4

:CHA001: TOTAL VALENCE CHARGE INSIDE SPHERE   1 =  12.9445    (RMT=  2.3100 )
:PCS001: PARTIAL CHARGES SPHERE =  1 S,P,D,F,PZ,PXY,,D-Z2,D-XY,D-X2Y2,D-XZ,YZ 
:QTL001: 0.3200 6.3343 6.2579 0.0255 2.0943 4.2399 0.0000 1.3989 1.2868 1.1939 2.3783 0.0000
        Q-s-low E-s-low   Q-p-low E-p-low   Q-d-low E-d-low   Q-f-low E-f-low
:EPL001:  0.0469 -0.6709    6.0270 -3.4766    0.0419 -0.6677    0.0047 -0.7874
        Q-s-hi  E-s-hi    Q-p-hi  E-p-hi    Q-d-hi  E-d-hi    Q-f-hi  E-f-hi 
:EPH001:  0.2731  0.0062    0.3073  0.1222    6.2160  0.2439    0.0209  0.1299
:VZZ001: EFG INSIDE SPHERE   1 =     0.109120      UP TO R =   2.31000




:POS002: ATOM   -2 X,Y,Z = 0.75000 0.75000 0.73000  MULT= 2  ZZ= 34.000  Se  2-    

       LMMAX 10
       LM=   0 0  1 0  2 0  3 0  4 0  4 4  5 0  5 4  6 0  6 4

:CHA002: TOTAL VALENCE CHARGE INSIDE SPHERE   2 =  13.8857    (RMT=  2.2000 )
:PCS002: PARTIAL CHARGES SPHERE =  2 S,P,D,F,PZ,PXY,,D-Z2,D-XY,D-X2Y2,D-XZ,YZ 
:QTL002: 1.4911 2.313410.0618 0.0154 0.7926 1.5209 0.0000 2.0126 2.0121 2.0123 4.0247 0.0000
        Q-s-low E-s-low   Q-p-low E-p-low   Q-d-low E-d-low   Q-f-low E-f-low
:EPL002:  1.4102 -0.6429    0.0112 -0.8054    9.9868 -3.2008    0.0003 -2.8988
        Q-s-hi  E-s-hi    Q-p-hi  E-p-hi    Q-d-hi  E-d-hi    Q-f-hi  E-f-hi 
:EPH002:  0.0809  0.0827    2.3022  0.0761    0.0750  0.1996    0.0150  0.2634
:VZZ002: EFG INSIDE SPHERE   2 =    -5.456013      UP TO R =   2.20000

:CHA  : TOTAL VALENCE CHARGE INSIDE UNIT CELL =      60.000000

:SUM  : SUM OF EIGENVALUES =        -104.481033570


        1.ATOM      Fe  2+                5 CORE STATES
:1S 001: 1S                -512.261523804 Ry
:2S 001: 2S                 -59.192994296 Ry
:2PP001: 2P*                -50.995307560 Ry
:2P 001: 2P                 -50.080078406 Ry
:3S 001: 3S                  -5.961065829 Ry

        2.ATOM      Se  2-                7 CORE STATES
       CORE-FORCE in mRy/a.u. = |F|      Fx             Fy             Fz
:FCO002:   2.ATOM   1152.980927920331      0.000000000000      0.000000000000   1152.980927920331

:1S 002: 1S                -916.513608482 Ry
:2S 002: 2S                -117.172119785 Ry
:2PP002: 2P*               -105.147507292 Ry
:2P 002: 2P                -102.084239277 Ry
:3S 002: 3S                 -14.903370016 Ry
:3PP002: 3P*                -10.790496595 Ry
:3P 002: 3P                 -10.358036393 Ry
:CINT001 Core Integral Atom   1   11.998598
:CINT002 Core Integral Atom   2   17.999775

       DENSITY AT NUCLEUS
        JATOM        VALENCE       SEMI-CORE          CORE           TOTAL
:RTO001:   1        5.625151        0.000000    15215.115276    15220.740427
:RTO002:   2       58.859126        0.000000    40787.634119    40846.493245
     
       CHARGES OF NEW CHARGE DENSITY
:NTO   : INTERSTITIAL CHARGE =     6.339470
:NTO001: CHARGE SPHERE  1    =    24.943108
:NTO002: CHARGE SPHERE  2    =    31.885521

:NEC01: NUCLEAR AND ELECTRONIC CHARGE    120.00000   119.99673
     
       CHARGES OF OLD CHARGE DENSITY
:OTO   : INTERSTITIAL CHARGE =     6.345010
:OTO001: CHARGE SPHERE  1    =    24.940553
:OTO002: CHARGE SPHERE  2    =    31.886942

:NEC02: NUCLEAR AND ELECTRONIC CHARGE    120.00000   120.00000
     
       CONVERGENCE TEST
:DTO001: DIFFERENCE IN SPHERE  1 =  0.0035925
:DTO002: DIFFERENCE IN SPHERE  2 =  0.0009719

:DIS  :  CHARGE DISTANCE       (  0.003592 for atom    1 spin 1)       0.002282
 
******************************************************
* MULTISECANT MIXING VER7 RELEASE 7.1.2              *
* Standard Mode with controls                        *
* Upper Bound on PW scaling active                   *
* Regularization       1.000E-04                     *
* Greed Lower Bound    2.500E-02                     *
* Trust Upper Limit    1.200E+01                     *
* Charge change trust active                         *
* Max Number of Memory Steps    8                    *
******************************************************
 
 :WARN :  Number of PWs changed, you may want to restart broyden after iteration
          11         212         210
:PLANE:  INTERSTITIAL TOTAL      1.19510 DISTAN  4.371E-02 % 
:CHARG:  CLM CHARGE   /ATOM    157.74629 DISTAN  1.302E-02 % 
 
Step History
      DMIX        Red     Pred      Trust     Lambda    MagRel    MagAbs     Beta
  4  6.57E-02  7.46E-01  7.50E-01  5.35E-01  1.14E+00  2.18E-01  9.16E-01  1.00E+00
  5  7.75E-02  4.50E-01  4.95E-01  1.11E+00  9.15E-01  5.35E-01  1.66E+00  1.00E+00
  6  1.02E-01  1.84E-01  2.34E-01  1.76E+00  6.81E-01  9.04E-01  1.24E+00  1.00E+00
  7  1.44E-01  6.60E-01  9.84E-01  1.58E+00  1.02E+00  2.57E-01  6.84E-02  1.00E+00
  8  2.08E-01  3.68E-01  5.06E-01  2.49E+00  5.56E-01  4.17E-01  7.51E-02  1.00E+00
  9  3.07E-01  2.34E+00  3.40E-01  1.28E+00  1.00E+00  7.31E-01  4.89E-02  1.00E+00
 10  2.82E-01  6.87E-01  2.63E-01  1.84E+00  1.47E+00  1.24E-01  2.06E-02  8.00E-01
 11  3.18E-01  5.22E-01  4.50E-01  2.02E+00  1.28E+00  6.06E-01  6.93E-02  1.00E+00
 12  3.50E-01 -1.00E+00  2.47E-01 -1.00E+01  1.00E+00  5.06E-01  3.03E-02  7.60E-01
  
:NORMS:  1/Froebius, Min, Max, Used   0.8236E+00  0.5334E+00  0.1006E+01  0.9578E+00
:INFO :  Number of Memory Steps    8 Skipping    3
:INFO :  SLambda=    1.4302528  Max    1.4302528

Eigenvalues, unscaled except for SY+YY
   #     SY Real        SY Imag          SS             YY         SY+YY Real      SY+YY Imag
   1   3.500001E+00   0.000000E+00   4.035424E+00   4.398603E+00   9.017279E+00   0.000000E+00
   2   1.289585E+00   0.000000E+00   1.124550E+00   2.506092E+00   4.741923E+00   0.000000E+00
   3   5.395945E-01   0.000000E+00   2.414122E-01   5.998342E-01   1.369251E+00   0.000000E+00
   4   5.646244E-02   0.000000E+00   1.898440E-02   4.137314E-01   4.914332E-01   0.000000E+00
   5   2.014157E-02   0.000000E+00   4.568122E-03   6.917907E-02   1.001416E-01   0.000000E+00
   6   6.169759E-03   0.000000E+00   1.462644E-03   1.225344E-02   2.007162E-02   0.000000E+00
   7   1.326127E-04   0.000000E+00   5.338373E-05   3.038070E-04   5.497256E-04   0.000000E+00
   8   1.081622E-06   0.000000E+00   3.783054E-07   3.145870E-06   5.085080E-06   0.000000E+00
 
:INFO :  Singular value  9.158E+00 Weight  1.000E+00 Projection  3.997E-04
:INFO :  Singular value  4.942E+00 Weight  1.000E+00 Projection  2.395E-02
:INFO :  Singular value  1.320E+00 Weight  1.000E+00 Projection  6.334E-03
:INFO :  Singular value  4.865E-01 Weight  1.000E+00 Projection -2.046E-02
:INFO :  Singular value  9.973E-02 Weight  1.000E+00 Projection -1.690E-02
:INFO :  Singular value  2.022E-02 Weight  9.995E-01 Projection -5.058E-02
:INFO :  Singular value  5.428E-04 Weight  6.036E-01 Projection  3.283E-04
:INFO :  Singular value  5.082E-06 Weight  1.335E-04 Projection  5.643E-06
:RANK :  ACTIVE   6.60/8  =  82.54 %
 
:DLIM :  Beta Active  6.840E-01
:TRUST:  Step 2.21E+00  Charge 3.50E-02 (e)
:DIRM :  MEMORY  8/8  RESCALE   16.65 RED  0.67 PRED  0.25 NEXT  0.32 BETA  0.68
:DIRP :  |MSR1|= 1.989E-03 |PRATT|= 8.699E-03 ANGLE=  25.6 DEGREES
:DIRQ :  |MSR1|= 7.703E-03 |PRATT|= 4.109E-02 ANGLE=  28.5 DEGREES
:DIRT :  |MSR1|= 7.955E-03 |PRATT|= 4.200E-02 ANGLE=  28.5 DEGREES
:MIX  :   MSE1   REGULARIZATION: 4.40E-04  GREED: 0.3500  Newton 1.00 0.189                
     
       CHARGES OF MIXED CHARGE DENSITY
:CTO   : INTERSTITIAL CHARGE =     6.344867
:CTO001: CHARGE SPHERE  1    =    24.940754
:CTO002: CHARGE SPHERE  2    =    31.886812

:NEC03: NUCLEAR AND ELECTRONIC CHARGE    120.00000   120.00000

PW CHANGE     H    K    L      Current       Change    Residue
:PTO001:      0    0    0  3.72073984E-02 -2.137E-06 -1.320E-05
:PTO002:      0    0   -1  1.19281129E-02 -1.183E-06 -1.870E-06
:PTO004:     -1    0   -1 -8.37320123E-02  4.819E-06  2.764E-05
:PTO005:      0    0   -2 -1.18630634E-02  1.046E-06  3.762E-06
:PTO006:     -1   -1    0 -2.40794925E-02  2.115E-06  1.665E-05
:PTO007:     -1   -1   -1  1.46070780E-02 -3.444E-06 -6.793E-06
:PTO008:     -1    0   -2  8.90312868E-03 -1.589E-06 -1.063E-05
:PTO009:     -1   -1   -2  1.77435579E-02 -6.483E-06 -1.690E-05
:PTO010:     -2    0    0 -8.38719509E-03  5.248E-07  4.190E-07
:PTO011:      0    0   -3  7.97251308E-04 -5.895E-07 -3.721E-06
:PTO012:     -2    0   -1  7.69031346E-03  8.644E-07 -2.851E-06
:PTO014:     -1    0   -3  6.66220510E-03 -2.593E-06 -5.983E-06

:ENE  : *WARNING** TOTAL ENERGY IN Ry =       -14790.69235869

       TOTAL FORCE IN mRy/a.u. = |F|     Fx             Fy             Fz     with/without FOR in case.in2
:FOR001:   1.ATOM          0.000          0.000          0.000          0.000 partial forces
:FOR002:   2.ATOM        140.653          0.000          0.000       -140.653 partial forces
       TOTAL FORCE WITH RESPECT TO GLOBAL CARTESIAN COORDINATES:
:FCA001:   1.ATOM                         0.000          0.000          0.000 partial forces
:FCA002:   2.ATOM                         0.000          0.000       -140.653 partial forces
       TOTAL FORCE WITH RESPECT TO THE GLOBAL COORDINATE SYSTEM:
:FGL001:   1.ATOM                 0.000000000     0.000000000     0.000000000 partial forces
:FGL002:   2.ATOM                 0.000000000     0.000000000  -140.653008184 partial forces
