

            ---------
:ITE012: 12. ITERATION
            ---------

:NATO :    4 INDEPENDEND AND    7 TOTAL ATOMS IN UNITCELL
       SUBSTANCE: La2CuO4                                                     

       LATTICE                      = B   
:POT  : POTENTIAL OPTION   13
:LAT  : LATTICE CONSTANTS=  7.15564  7.15564 24.80832    1.571    1.571    1.571
:VOL  : UNIT CELL VOLUME =     635.13208
       MODE OF CALCULATION IS       = RELA
       NON-SPINPOLARIZED CALCULATION
:IFFT  : FFT-parameters:   64   64  240 Factor: 2.00
       ATOMNUMBER=  1 La         VCOUL-ZERO =  0.16862E+00
:EFG001:                        EFG         =   -17.02816   *10**21  V / m**2
                               V20  TOT/SRF=   -14.74682    -0.05341
                               V22  TOT/SRF=     0.00000     0.00000
                               V22M TOT/SRF=     0.00000     0.00000
                               V21  TOT/SRF=     0.00000     0.00000
                               V21M TOT/SRF=     0.00000     0.00000

              8.51408    0.00000    0.00000        8.51408    0.00000    0.00000
              0.00000    8.51408    0.00000        0.00000    8.51408    0.00000
              0.00000    0.00000  -17.02816        0.00000    0.00000  -17.02816

         MAIN DIRECTIONS OF THE EFG   1.0000  0.0000  0.0000
                                      0.0000  1.0000  0.0000
                                      0.0000  0.0000  1.0000
:ANG001:  ANGLE WITH OLD X-AXIS =         0.0

:ETA001:                         ASYMM. ETA =     0.00000


       ATOMNUMBER=  2 Cu         VCOUL-ZERO =  0.41317E+00
:EFG002:                        EFG         =    -6.91214   *10**21  V / m**2
                               V20  TOT/SRF=    -5.98609    -0.16451
                               V22  TOT/SRF=     0.00000     0.00000
                               V22M TOT/SRF=     0.00000     0.00000
                               V21  TOT/SRF=     0.00000     0.00000
                               V21M TOT/SRF=     0.00000     0.00000

              3.45607    0.00000    0.00000        3.45607    0.00000    0.00000
              0.00000    3.45607    0.00000        0.00000    3.45607    0.00000
              0.00000    0.00000   -6.91214        0.00000    0.00000   -6.91214

         MAIN DIRECTIONS OF THE EFG   1.0000  0.0000  0.0000
                                      0.0000  1.0000  0.0000
                                      0.0000  0.0000  1.0000
:ANG002:  ANGLE WITH OLD X-AXIS =         0.0

:ETA002:                         ASYMM. ETA =     0.00000


       ATOMNUMBER=  3 O          VCOUL-ZERO =  0.69800E+00
:EFG003:                        EFG         =     8.63277   *10**21  V / m**2
                               V20  TOT/SRF=    -2.52215    -0.29528
                               V22  TOT/SRF=     7.17661     0.51899
                               V22M TOT/SRF=     0.00000     0.00000
                               V21  TOT/SRF=     0.00000     0.00000
                               V21M TOT/SRF=     0.00000     0.00000

              8.63277    0.00000    0.00000        8.63277    0.00000    0.00000
              0.00000   -5.72045    0.00000        0.00000   -5.72045    0.00000
              0.00000    0.00000   -2.91233        0.00000    0.00000   -2.91233

         MAIN DIRECTIONS OF THE EFG   1.0000  0.0000  0.0000
                                      0.0000  1.0000  0.0000
                                      0.0000  0.0000  1.0000
:ANG003:  ANGLE WITH OLD X-AXIS =         0.0

:ETA003:                         ASYMM. ETA =     0.32529


       ATOMNUMBER=  4 O          VCOUL-ZERO =  0.80769E+00
:EFG004:                        EFG         =    -2.37593   *10**21  V / m**2
                               V20  TOT/SRF=    -2.05762     0.15057
                               V22  TOT/SRF=     0.00000     0.00000
                               V22M TOT/SRF=     0.00000     0.00000
                               V21  TOT/SRF=     0.00000     0.00000
                               V21M TOT/SRF=     0.00000     0.00000

              1.18797    0.00000    0.00000        1.18797    0.00000    0.00000
              0.00000    1.18797    0.00000        0.00000    1.18797    0.00000
              0.00000    0.00000   -2.37593        0.00000    0.00000   -2.37593

         MAIN DIRECTIONS OF THE EFG   1.0000  0.0000  0.0000
                                      0.0000  1.0000  0.0000
                                      0.0000  0.0000  1.0000
:ANG004:  ANGLE WITH OLD X-AXIS =         0.0

:ETA004:                         ASYMM. ETA =     0.00000


       HELLMAN-FEYMAN-FORCE IN mRy/a.u. = |F|  Fx       Fy             Fz
:FHF001:   1.ATOM        491.425          0.000          0.000       -491.425

       HELLMAN-FEYMAN-FORCE IN mRy/a.u. = |F|  Fx       Fy             Fz
:FHF002:   2.ATOM          0.000          0.000          0.000          0.000

       HELLMAN-FEYMAN-FORCE IN mRy/a.u. = |F|  Fx       Fy             Fz
:FHF003:   3.ATOM          0.000          0.000          0.000          0.000

       HELLMAN-FEYMAN-FORCE IN mRy/a.u. = |F|  Fx       Fy             Fz
:FHF004:   4.ATOM          6.972          0.000          0.000          6.972

:FIT001: SIGMA OF V-XC FIT FOR ATOM  1  0.3069946E-02
:FIT001: SIGMA OF V-XC FIT FOR ATOM  1  0.3069946E-02
:FIT002: SIGMA OF V-XC FIT FOR ATOM  2  0.1086862E-01
:FIT002: SIGMA OF V-XC FIT FOR ATOM  2  0.1086862E-01
:FIT003: SIGMA OF V-XC FIT FOR ATOM  3  0.6884383E-03
:FIT003: SIGMA OF V-XC FIT FOR ATOM  3  0.6884383E-03
:FIT004: SIGMA OF V-XC FIT FOR ATOM  4  0.7224108E-04
:FIT004: SIGMA OF V-XC FIT FOR ATOM  4  0.7224108E-04
:DEN  : DENSITY INTEGRALS =        -14773.58858943   (Ry)
       ELS_POTENTIAL_AT Z=0 and Z=0.5:  -0.48846  -0.48846
       ELS_POTENTIAL_AT Y=0 and Y=0.5:  -1.46612  -1.46612
:VZERO:v0,v0c,v0x  -1.44186  -0.48846  -0.95340 v5,v5c,v5x  -1.44186  -0.48846  -0.95340
:VZERY:v0,v0c,v0x  -2.44886  -1.46612  -0.98274 v5,v5c,v5x  -2.44886  -1.46612  -0.98274
:VZERX:v0,v0c,v0x  -0.81268   0.00000  -0.81268 v5,v5c,v5x  -0.81268   0.00000  -0.81268
