

            ---------
:ITE001:  1. ITERATION
            ---------

:NATO :    4 INDEPENDEND AND    7 TOTAL ATOMS IN UNITCELL
       SUBSTANCE: La2CuO4                                                     

       LATTICE                      = B   
:POT  : POTENTIAL OPTION   13
:LAT  : LATTICE CONSTANTS=  7.15564  7.15564 24.80832    1.571    1.571    1.571
:VOL  : UNIT CELL VOLUME =     635.13208
       MODE OF CALCULATION IS       = RELA
       NON-SPINPOLARIZED CALCULATION
:IFFT  : FFT-parameters:   64   64  240 Factor: 2.00
       ATOMNUMBER=  1 La         VCOUL-ZERO =  0.22099E+00
:EFG001:                        EFG         =     0.01205   *10**21  V / m**2
                               V20  TOT/SRF=     0.01043     0.02998
                               V22  TOT/SRF=     0.00000     0.00000
                               V22M TOT/SRF=     0.00000     0.00000
                               V21  TOT/SRF=     0.00000     0.00000
                               V21M TOT/SRF=     0.00000     0.00000

             -0.00602    0.00000    0.00000       -0.00602    0.00000    0.00000
              0.00000   -0.00602    0.00000        0.00000   -0.00602    0.00000
              0.00000    0.00000    0.01205        0.00000    0.00000    0.01205

         MAIN DIRECTIONS OF THE EFG   1.0000  0.0000  0.0000
                                      0.0000  1.0000  0.0000
                                      0.0000  0.0000  1.0000
:ANG001:  ANGLE WITH OLD X-AXIS =         0.0

:ETA001:                         ASYMM. ETA =     0.00000


       ATOMNUMBER=  2 Cu         VCOUL-ZERO =  0.40566E+00
:EFG002:                        EFG         =    -0.12038   *10**21  V / m**2
                               V20  TOT/SRF=    -0.10425    -0.25148
                               V22  TOT/SRF=     0.00000     0.00000
                               V22M TOT/SRF=     0.00000     0.00000
                               V21  TOT/SRF=     0.00000     0.00000
                               V21M TOT/SRF=     0.00000     0.00000

              0.06019    0.00000    0.00000        0.06019    0.00000    0.00000
              0.00000    0.06019    0.00000        0.00000    0.06019    0.00000
              0.00000    0.00000   -0.12038        0.00000    0.00000   -0.12038

         MAIN DIRECTIONS OF THE EFG   1.0000  0.0000  0.0000
                                      0.0000  1.0000  0.0000
                                      0.0000  0.0000  1.0000
:ANG002:  ANGLE WITH OLD X-AXIS =         0.0

:ETA002:                         ASYMM. ETA =     0.00000


       ATOMNUMBER=  3 O          VCOUL-ZERO =  0.57764E+00
:EFG003:                        EFG         =     0.32462   *10**21  V / m**2
                               V20  TOT/SRF=    -0.16703    -0.27236
                               V22  TOT/SRF=     0.22819     0.39939
                               V22M TOT/SRF=     0.00000     0.00000
                               V21  TOT/SRF=     0.00000     0.00000
                               V21M TOT/SRF=     0.00000     0.00000

              0.32462    0.00000    0.00000        0.32462    0.00000    0.00000
              0.00000   -0.13176    0.00000        0.00000   -0.13176    0.00000
              0.00000    0.00000   -0.19286        0.00000    0.00000   -0.19286

         MAIN DIRECTIONS OF THE EFG   1.0000  0.0000  0.0000
                                      0.0000  1.0000  0.0000
                                      0.0000  0.0000  1.0000
:ANG003:  ANGLE WITH OLD X-AXIS =         0.0

:ETA003:                         ASYMM. ETA =     0.18825


       ATOMNUMBER=  4 O          VCOUL-ZERO =  0.65764E+00
:EFG004:                        EFG         =     0.19346   *10**21  V / m**2
                               V20  TOT/SRF=     0.16754     0.20334
                               V22  TOT/SRF=     0.00000     0.00000
                               V22M TOT/SRF=     0.00000     0.00000
                               V21  TOT/SRF=     0.00000     0.00000
                               V21M TOT/SRF=     0.00000     0.00000

             -0.09673    0.00000    0.00000       -0.09673    0.00000    0.00000
              0.00000   -0.09673    0.00000        0.00000   -0.09673    0.00000
              0.00000    0.00000    0.19346        0.00000    0.00000    0.19346

         MAIN DIRECTIONS OF THE EFG   1.0000  0.0000  0.0000
                                      0.0000  1.0000  0.0000
                                      0.0000  0.0000  1.0000
:ANG004:  ANGLE WITH OLD X-AXIS =         0.0

:ETA004:                         ASYMM. ETA =     0.00000


       HELLMAN-FEYMAN-FORCE IN mRy/a.u. = |F|  Fx       Fy             Fz
:FHF001:   1.ATOM         10.963          0.000          0.000        -10.963

       HELLMAN-FEYMAN-FORCE IN mRy/a.u. = |F|  Fx       Fy             Fz
:FHF002:   2.ATOM          0.000          0.000          0.000          0.000

       HELLMAN-FEYMAN-FORCE IN mRy/a.u. = |F|  Fx       Fy             Fz
:FHF003:   3.ATOM          0.000          0.000          0.000          0.000

       HELLMAN-FEYMAN-FORCE IN mRy/a.u. = |F|  Fx       Fy             Fz
:FHF004:   4.ATOM        417.557          0.000          0.000        417.557

:FIT001: SIGMA OF V-XC FIT FOR ATOM  1  0.8895428E-03
:FIT001: SIGMA OF V-XC FIT FOR ATOM  1  0.8895428E-03
:FIT002: SIGMA OF V-XC FIT FOR ATOM  2  0.6767251E-02
:FIT002: SIGMA OF V-XC FIT FOR ATOM  2  0.6767251E-02
:FIT003: SIGMA OF V-XC FIT FOR ATOM  3  0.4267775E-02
:FIT003: SIGMA OF V-XC FIT FOR ATOM  3  0.4267775E-02
:FIT004: SIGMA OF V-XC FIT FOR ATOM  4  0.1004834E-03
:FIT004: SIGMA OF V-XC FIT FOR ATOM  4  0.1004834E-03
:DEN  : DENSITY INTEGRALS =        -14770.52582464   (Ry)
       ELS_POTENTIAL_AT Z=0 and Z=0.5:  -0.63425  -0.63425
       ELS_POTENTIAL_AT Y=0 and Y=0.5:  -1.46971  -1.46971
:VZERO:v0,v0c,v0x  -1.64123  -0.63425  -1.00698 v5,v5c,v5x  -1.64123  -0.63425  -1.00698
:VZERY:v0,v0c,v0x  -2.47022  -1.46971  -1.00051 v5,v5c,v5x  -2.47022  -1.46971  -1.00051
:VZERX:v0,v0c,v0x  -0.83310   0.00000  -0.83310 v5,v5c,v5x  -0.83310   0.00000  -0.83310

          ATOMIC SPHERE DEPENDENT PARAMETERS FOR ATOM  La        
:e__0001: OVERALL ENERGY PARAMETER IS    0.3000
          OVERALL BASIS SET ON ATOM IS LAPW
:E0_0001: E( 0)=   -1.5860   E(BOTTOM)=   -2.288   E(TOP)=   -0.884
             APW+lo
:E0_0001: E( 0)=    0.3000
             LOCAL ORBITAL
:E1_0001: E( 1)=   -0.2210   E(BOTTOM)=   -1.236   E(TOP)=    0.794
             APW+lo
:E1_0001: E( 1)=    0.3000
             LOCAL ORBITAL
:E2_0001: E( 2)=    0.4250   E(BOTTOM)=    0.425   E(TOP)= -200.000
             APW+lo

          ATOMIC SPHERE DEPENDENT PARAMETERS FOR ATOM  Cu        
:e__0002: OVERALL ENERGY PARAMETER IS    0.3000
          OVERALL BASIS SET ON ATOM IS LAPW
:E1_0002: E( 1)=    0.3000
             APW+lo
:E1_0002: E( 1)=   -4.4880   E(BOTTOM)=   -4.601   E(TOP)=   -4.375
             LOCAL ORBITAL
:E2_0002: E( 2)=    0.4500   E(BOTTOM)=    0.035   E(TOP)=    0.865
             APW+lo
:E0_0002: E( 0)=    0.3000
             APW+lo

          ATOMIC SPHERE DEPENDENT PARAMETERS FOR ATOM  O         
:e__0003: OVERALL ENERGY PARAMETER IS    0.3000
          OVERALL BASIS SET ON ATOM IS LAPW
:E0_0003: E( 0)=   -0.7440   E(BOTTOM)=   -1.886   E(TOP)=    0.398
             APW+lo
:E0_0003: E( 0)=    0.3000
             LOCAL ORBITAL
:E1_0003: E( 1)=    0.3000
             APW+lo

          ATOMIC SPHERE DEPENDENT PARAMETERS FOR ATOM  O         
:e__0004: OVERALL ENERGY PARAMETER IS    0.3000
          OVERALL BASIS SET ON ATOM IS LAPW
:E0_0004: E( 0)=   -0.6930   E(BOTTOM)=   -1.828   E(TOP)=    0.442
             APW+lo
:E0_0004: E( 0)=    0.3000
             LOCAL ORBITAL
:E1_0004: E( 1)=    0.3000
             APW+lo

       K=   0.00000   0.00000   0.00000            1
:RKM  : MATRIX SIZE  823LOs:  58  RKM= 6.87  WEIGHT= 1.00  PGR:    
       EIGENVALUES ARE:
:EIG00001:      -4.4664812   -4.4664812   -4.4588029   -1.5836354   -1.5675224
:EIG00006:      -0.8810322   -0.7789138   -0.7665175   -0.7499524   -0.3670136
:EIG00011:      -0.3670136   -0.3630981   -0.3630981   -0.3622647   -0.3429083
:EIG00016:       0.1819909    0.1819909    0.2224820    0.2858473    0.2874249
:EIG00021:       0.3455530    0.3455530    0.3506586    0.3506586    0.3921020
:EIG00026:       0.3921020    0.4204860    0.4690905    0.4861198    0.4861198
:EIG00031:       0.5407977    0.5427238    0.8277596    0.8872913    0.9148866
:EIG00036:       0.9305842    0.9933608    0.9933608    0.9963926    1.0117170
:EIG00041:       1.0164041    1.0201237    1.0201237    1.0226459    1.0226459
:EIG00046:       1.0291289    1.0291289    1.0299802    1.0429616    1.0448155
 
:EIG00051:       1.0462075    1.0949993    1.0949993    1.1013611    1.1642530
:EIG00056:       1.2241720    1.2511631    1.2511631    1.5357943    1.6184378
:EIG00061:       1.6677432    1.7102066    1.7771587    1.7771587    1.8182691
:EIG00066:       1.8182691    1.9095619    2.0659975    2.0659975    2.0801572
:EIG00071:       2.2711109    2.3022308    2.3022308    2.3294319    2.3707685
:EIG00076:       2.4345532    2.4744819    2.5182081    2.5182081    2.5894396
:EIG00081:       2.5901416    2.5901416    2.6792070    2.6792070    2.7211401
:EIG00086:       2.7676431    2.8259788    2.8259788    2.8517435    2.9643072
:EIG00091:       2.9897045    2.9897045    2.9949023
       ********************************************************

:KPT   :      NUMBER OF K-POINTS:     102
:GMA  : POTENTIAL AND CHARGE CUT-OFF  14.00 Ry**.5
         Bandranges (emin - emax) and occupancy:
:BAN00022:  22    0.309469    0.345553  2.00000000
:BAN00023:  23    0.313538    0.368526  2.00000000
:BAN00024:  24    0.317910    0.371505  2.00000000
:BAN00025:  25    0.330494    0.392102  2.00000000
:BAN00026:  26    0.350318    0.392188  2.00000000
:BAN00027:  27    0.362600    0.420486  2.00000000
:BAN00028:  28    0.468969    0.557990  2.00000000
:BAN00029:  29    0.486120    0.558857  2.00000000
:BAN00030:  30    0.486120    0.567168  2.00000000
:BAN00031:  31    0.540798    0.585098  2.00000000
:BAN00032:  32    0.542683    0.776084  1.00000000
:BAN00033:  33    0.784909    0.948254  0.00000000
:BAN00034:  34    0.879197    0.964583  0.00000000
:BAN00035:  35    0.913657    0.980982  0.00000000
:BAN00036:  36    0.929839    0.990965  0.00000000
:BAN00037:  37    0.977488    0.997393  0.00000000
        Energy to separate low and high energystates:   -0.02336


:NOE  : NUMBER OF ELECTRONS          =  63.000

:FER  : F E R M I - ENERGY(TETRAH.M.)=   0.64944
:GMA  : POTENTIAL AND CHARGE CUT-OFF  14.00 Ry**.5
 
 
 
 
:POS001: ATOM   -1 POSITION = 0.00000 0.00000 0.63866  MULTIPLICITY = 2  ZZ= 57.000  La
 
       LMMAX 10
       LM=   0 0  1 0  2 0  3 0  4 0  4 4  5 0  5 4  6 0  6 4
 
:CHA001: TOTAL VALENCE CHARGE INSIDE SPHERE   1 =     7.096049
:PCS001: PARTIAL CHARGES SPHERE =  1 S,P,D,F,PZ,PXY,,D-Z2,D-XY,D-X2Y2,D-XZ,YZ
:QTL001: 1.8730 4.9683 0.1836 0.0665 1.6685 3.2997 0.0000 0.0572 0.0341 0.0219 0.0707 0.0000
        Q-s-low E-s-low   Q-p-low E-p-low   Q-d-low E-d-low   Q-f-low E-f-low
:EPL001:  1.8381 -1.5608    4.6240 -0.3825    0.0092 -0.7035    0.0032 -0.6868
        Q-s-hi  E-s-hi    Q-p-hi  E-p-hi    Q-d-hi  E-d-hi    Q-f-hi  E-f-hi
:EPH001:  0.0348  0.2707    0.3441  0.3177    0.1744  0.3117    0.0633  0.3531
:VZZ001: EFG INSIDE SPHERE   1 =   -14.887611      UP TO R =   2.34000
 
 
 
 
:POS002: ATOM   -2 POSITION = 0.00000 0.00000 0.00000  MULTIPLICITY = 1  ZZ= 29.000  Cu
 
       LMMAX  6
       LM=   0 0  2 0  4 0  4 4  6 0  6 4
 
:CHA002: TOTAL VALENCE CHARGE INSIDE SPHERE   2 =    14.906082
:PCS002: PARTIAL CHARGES SPHERE =  2 S,P,D,F,PZ,PXY,,D-Z2,D-XY,D-X2Y2,D-XZ,YZ
:QTL002: 0.1714 6.1405 8.5683 0.0204 2.0177 4.1229 0.0000 1.8219 1.8354 1.2749 3.6359 0.0000
        Q-s-low E-s-low   Q-p-low E-p-low   Q-d-low E-d-low   Q-f-low E-f-low
:EPL002:  0.0245 -0.8376    5.9995 -4.4467    0.0395 -0.7111    0.0036 -0.7344
        Q-s-hi  E-s-hi    Q-p-hi  E-p-hi    Q-d-hi  E-d-hi    Q-f-hi  E-f-hi
:EPH002:  0.1471  0.1949    0.1411  0.2295    8.5287  0.4936    0.0169  0.2999
:VZZ002: EFG INSIDE SPHERE   2 =   -18.218685      UP TO R =   1.88000
 
 
 
 
:POS003: ATOM   -3 POSITION = 0.50000 0.00000 0.00000  MULTIPLICITY = 2  ZZ=  8.000  O
 
       LMMAX 10
       LM=   0 0  2 0  2 2  4 0  4 2  4 4  6 0  6 2  6 4  6 6
 
:CHA003: TOTAL VALENCE CHARGE INSIDE SPHERE   3 =     5.810655
:PCS003: PARTIAL CHARGES SPHERE =  3 S,P,D,F,PX,PY,PZ,D-Z2,D-X2Y2,D-XY,D-XZ,D-YZ
:QTL003: 1.6721 4.1125 0.0205 0.0041 1.2745 1.4291 1.4088 0.0025 0.0059 0.0052 0.0051 0.0018
        Q-s-low E-s-low   Q-p-low E-p-low   Q-d-low E-d-low   Q-f-low E-f-low
:EPL003:  1.6450 -0.8035    0.0594 -0.4522    0.0031 -0.8716    0.0000 10.0000
        Q-s-hi  E-s-hi    Q-p-hi  E-p-hi    Q-d-hi  E-d-hi    Q-f-hi  E-f-hi
:EPH003:  0.0270  0.4278    4.0530  0.2775    0.0176  0.4744    0.0037  0.4247
 
                      VXX         VYY         VZZ       UP TO R
 
:VZZ003:             9.25463    -5.51499    -3.73964       1.670
 
 
 
 
:POS004: ATOM   -4 POSITION = 0.00000 0.00000 0.81770  MULTIPLICITY = 2  ZZ=  8.000  O
 
       LMMAX 10
       LM=   0 0  1 0  2 0  3 0  4 0  4 4  5 0  5 4  6 0  6 4
 
:CHA004: TOTAL VALENCE CHARGE INSIDE SPHERE   4 =     5.852327
:PCS004: PARTIAL CHARGES SPHERE =  4 S,P,D,F,PZ,PXY,,D-Z2,D-XY,D-X2Y2,D-XZ,YZ
:QTL004: 1.6828 4.1623 0.0058 0.0010 1.4030 2.7595 0.0000 0.0032 0.0009 0.0000 0.0014 0.0000
        Q-s-low E-s-low   Q-p-low E-p-low   Q-d-low E-d-low   Q-f-low E-f-low
:EPL004:  1.6723 -0.7320    0.0693 -0.4203    0.0032 -0.4880    0.0000 10.0000
        Q-s-hi  E-s-hi    Q-p-hi  E-p-hi    Q-d-hi  E-d-hi    Q-f-hi  E-f-hi
:EPH004:  0.0103  0.3955    4.0936  0.3446    0.0025  0.4109    0.0000 10.0000
:VZZ004: EFG INSIDE SPHERE   4 =    -1.398337      UP TO R =   1.67000
 
:CHA  : TOTAL VALENCE CHARGE INSIDE UNIT CELL =      63.000003
 
:SUM  : SUM OF EIGENVALUES =         -32.075365642
 

        1.ATOM      La                   14 CORE STATES
       CORE-FORCE in mRy/a.u. = |F|      Fx             Fy             Fz
:FCO001:   1.ATOM          5.492          0.000          0.000          5.492

:1S 001: 1S               -2844.517104588 Ry
:2S 001: 2S                -451.511605365 Ry
:2PP001: 2P*               -425.724413602 Ry
:2P 001: 2P                -395.359677056 Ry
:3S 001: 3S                 -95.527566341 Ry
:3PP001: 3P*                -84.661131919 Ry
:3P 001: 3P                 -78.743056688 Ry
:3DD001: 3D*                -59.720064075 Ry
:3D 001: 3D                 -58.454069406 Ry
:4S 001: 4S                 -18.232935289 Ry
:4PP001: 4P*                -14.235582180 Ry
:4P 001: 4P                 -12.977225945 Ry
:4DD001: 4D*                 -6.427439762 Ry
:4D 001: 4D                  -6.209121957 Ry

        2.ATOM      Cu                    5 CORE STATES
:1S 002: 1S                -649.523380317 Ry
:2S 002: 2S                 -77.248943065 Ry
:2PP002: 2P*                -67.562832190 Ry
:2P 002: 2P                 -66.056941938 Ry
:3S 002: 3S                  -7.598253441 Ry

        3.ATOM      O                     1 CORE STATES
:1S 003: 1S                 -36.729598127 Ry

        4.ATOM      O                     1 CORE STATES
       CORE-FORCE in mRy/a.u. = |F|      Fx             Fy             Fz
:FCO004:   4.ATOM        104.677          0.000          0.000       -104.677

:1S 004: 1S                 -36.702438068 Ry

       DENSITY AT NUCLEUS
        JATOM    VALENCE       SEMI-CORE            CORE           TOTAL

:RTO001:   1      485.444285        0.000000   537551.790523   538037.234809
:RTO002:   2        5.985403        0.000000    22630.407308    22636.392710
:RTO003:   3       15.849174        0.000000      303.974938      319.824112
:RTO004:   4       16.078241        0.000000      303.987530      320.065771
     
       CHARGES OF NEW CHARGE DENSITY
:NTO  : TOTAL   INTERSTITIAL CHARGE=   10.5758354
:NTO001: TOTAL   CHARGE IN SPHERE  1 =       53.0932731
:NTO002: TOTAL   CHARGE IN SPHERE  2 =       26.9031928
:NTO003: TOTAL   CHARGE IN SPHERE  3 =        7.8106565
:NTO004: TOTAL   CHARGE IN SPHERE  4 =        7.8523270

:NEC01: NUCLEAR AND ELECTRONIC CHARGE    175.00000   174.99154     1.00005
     
       CHARGES OF OLD CHARGE DENSITY
:OTO  : TOTAL   INTERSTITIAL CHARGE=   12.6551641
:OTO001: TOTAL   CHARGE IN SPHERE  1 =       53.4661330
:OTO002: TOTAL   CHARGE IN SPHERE  2 =       27.1366472
:OTO003: TOTAL   CHARGE IN SPHERE  3 =        7.1266777
:OTO004: TOTAL   CHARGE IN SPHERE  4 =        7.0131541

:NEC02: NUCLEAR AND ELECTRONIC CHARGE    175.00000   175.00374     0.99998
     
       CONVERGENCE TEST
:DTO001: TOTAL   DIFFERENCE CHARGE**2 IN SPHERE  1 =  0.3164924
:DTO002: TOTAL   DIFFERENCE CHARGE**2 IN SPHERE  2 =  0.2608333
:DTO003: TOTAL   DIFFERENCE CHARGE**2 IN SPHERE  3 =  0.5927443
:DTO004: TOTAL   DIFFERENCE CHARGE**2 IN SPHERE  4 =  0.7227460

:DIS  :  CHARGE DISTANCE       ( 0.7227460 for atom    4 spin 1)      0.5035427
:BIG check (qbig,qrms,qtot)    0.241D+00   0.379D+00   0.504D+00
 
******************************************************
* MULTISECANT MIXING OPTIONS                         *
* NFL Limit   0.100000                               *
* Diag Parm   0.000500                               *
* Standard Increase/Decrease Bounds                  *
* Plane Wave SQRT Dynamic Rescaling                  *
* Max Number of Memory Steps    8                    *
******************************************************
 
:PLANE:  INTERSTITIAL TOTAL     24.04621 DISTAN  0.244D+01 % 
:CHARG:  CLM CHARGE   TOTAL      5.19095 DISTAN  0.441D+01 % 
:REDuction and DMIX in Broyd:    0.4653    0.0931
       PRATT MIXING SCHEME WITH 0.025
     
       CHARGES OF MIXED CHARGE DENSITY
:CTO  : TOTAL   INTERSTITIAL CHARGE=   12.5997451
:CTO001: TOTAL   CHARGE IN SPHERE  1 =       53.4568115
:CTO002: TOTAL   CHARGE IN SPHERE  2 =       27.1308108
:CTO003: TOTAL   CHARGE IN SPHERE  3 =        7.1437771
:CTO004: TOTAL   CHARGE IN SPHERE  4 =        7.0341335

:NEC03: NUCLEAR AND ELECTRONIC CHARGE    175.00000   175.00000     1.00000


:ENE  : ********** TOTAL ENERGY IN Ry =       -37903.84328254

       TOTAL FORCE IN mRy/a.u. = |F|     Fx             Fy             Fz        with/without FOR in case.in2
:FOR001:   1.ATOM          5.471          0.000          0.000         -5.471 partial forces
:FOR002:   2.ATOM          0.000          0.000          0.000          0.000 partial forces
:FOR003:   3.ATOM          0.000          0.000          0.000          0.000 partial forces
:FOR004:   4.ATOM        312.880          0.000          0.000        312.880 partial forces

       TOTAL FORCE WITH RESPECT TO GLOBAL CARTESIAN COORDINATES:
:FCA001:   1.ATOM                         0.000          0.000         -5.471 partial forces
:FCA002:   2.ATOM                         0.000          0.000          0.000 partial forces
:FCA003:   3.ATOM                         0.000          0.000          0.000 partial forces
:FCA004:   4.ATOM                         0.000          0.000        312.880 partial forces

       TOTAL FORCE WITH RESPECT TO THE GLOBAL COORDINATE SYSTEM:
:FGL001:   1.ATOM                 0.000000000     0.000000000    -5.471000000 partial forces
:FGL002:   2.ATOM                 0.000000000     0.000000000     0.000000000 partial forces
:FGL003:   3.ATOM                 0.000000000     0.000000000     0.000000000 partial forces
:FGL004:   4.ATOM                 0.000000000     0.000000000   312.880000000 partial forces


            ---------
:ITE002:  2. ITERATION
            ---------

:NATO :    4 INDEPENDEND AND    7 TOTAL ATOMS IN UNITCELL
       SUBSTANCE: La2CuO4                                                     

       LATTICE                      = B   
:POT  : POTENTIAL OPTION   13
:LAT  : LATTICE CONSTANTS=  7.15564  7.15564 24.80832    1.571    1.571    1.571
:VOL  : UNIT CELL VOLUME =     635.13208
       MODE OF CALCULATION IS       = RELA
       NON-SPINPOLARIZED CALCULATION
:IFFT  : FFT-parameters:   64   64  240 Factor: 2.00
       ATOMNUMBER=  1 La         VCOUL-ZERO =  0.21691E+00
:EFG001:                        EFG         =    -0.36270   *10**21  V / m**2
                               V20  TOT/SRF=    -0.31411     0.02654
                               V22  TOT/SRF=     0.00000     0.00000
                               V22M TOT/SRF=     0.00000     0.00000
                               V21  TOT/SRF=     0.00000     0.00000
                               V21M TOT/SRF=     0.00000     0.00000

              0.18135    0.00000    0.00000        0.18135    0.00000    0.00000
              0.00000    0.18135    0.00000        0.00000    0.18135    0.00000
              0.00000    0.00000   -0.36270        0.00000    0.00000   -0.36270

         MAIN DIRECTIONS OF THE EFG   1.0000  0.0000  0.0000
                                      0.0000  1.0000  0.0000
                                      0.0000  0.0000  1.0000
:ANG001:  ANGLE WITH OLD X-AXIS =         0.0

:ETA001:                         ASYMM. ETA =     0.00000


       ATOMNUMBER=  2 Cu         VCOUL-ZERO =  0.40568E+00
:EFG002:                        EFG         =    -0.57363   *10**21  V / m**2
                               V20  TOT/SRF=    -0.49678    -0.24612
                               V22  TOT/SRF=     0.00000     0.00000
                               V22M TOT/SRF=     0.00000     0.00000
                               V21  TOT/SRF=     0.00000     0.00000
                               V21M TOT/SRF=     0.00000     0.00000

              0.28681    0.00000    0.00000        0.28681    0.00000    0.00000
              0.00000    0.28681    0.00000        0.00000    0.28681    0.00000
              0.00000    0.00000   -0.57363        0.00000    0.00000   -0.57363

         MAIN DIRECTIONS OF THE EFG   1.0000  0.0000  0.0000
                                      0.0000  1.0000  0.0000
                                      0.0000  0.0000  1.0000
:ANG002:  ANGLE WITH OLD X-AXIS =         0.0

:ETA002:                         ASYMM. ETA =     0.00000


       ATOMNUMBER=  3 O          VCOUL-ZERO =  0.58347E+00
:EFG003:                        EFG         =     0.56540   *10**21  V / m**2
                               V20  TOT/SRF=    -0.25091    -0.27222
                               V22  TOT/SRF=     0.42054     0.40262
                               V22M TOT/SRF=     0.00000     0.00000
                               V21  TOT/SRF=     0.00000     0.00000
                               V21M TOT/SRF=     0.00000     0.00000

              0.56540    0.00000    0.00000        0.56540    0.00000    0.00000
              0.00000   -0.27568    0.00000        0.00000   -0.27568    0.00000
              0.00000    0.00000   -0.28972        0.00000    0.00000   -0.28972

         MAIN DIRECTIONS OF THE EFG   1.0000  0.0000  0.0000
                                      0.0000  1.0000  0.0000
                                      0.0000  0.0000  1.0000
:ANG003:  ANGLE WITH OLD X-AXIS =         0.0

:ETA003:                         ASYMM. ETA =     0.02484


       ATOMNUMBER=  4 O          VCOUL-ZERO =  0.66563E+00
:EFG004:                        EFG         =     0.15896   *10**21  V / m**2
                               V20  TOT/SRF=     0.13766     0.20194
                               V22  TOT/SRF=     0.00000     0.00000
                               V22M TOT/SRF=     0.00000     0.00000
                               V21  TOT/SRF=     0.00000     0.00000
                               V21M TOT/SRF=     0.00000     0.00000

             -0.07948    0.00000    0.00000       -0.07948    0.00000    0.00000
              0.00000   -0.07948    0.00000        0.00000   -0.07948    0.00000
              0.00000    0.00000    0.15896        0.00000    0.00000    0.15896

         MAIN DIRECTIONS OF THE EFG   1.0000  0.0000  0.0000
                                      0.0000  1.0000  0.0000
                                      0.0000  0.0000  1.0000
:ANG004:  ANGLE WITH OLD X-AXIS =         0.0

:ETA004:                         ASYMM. ETA =     0.00000


       HELLMAN-FEYMAN-FORCE IN mRy/a.u. = |F|  Fx       Fy             Fz
:FHF001:   1.ATOM         12.159          0.000          0.000        -12.159

       HELLMAN-FEYMAN-FORCE IN mRy/a.u. = |F|  Fx       Fy             Fz
:FHF002:   2.ATOM          0.000          0.000          0.000          0.000

       HELLMAN-FEYMAN-FORCE IN mRy/a.u. = |F|  Fx       Fy             Fz
:FHF003:   3.ATOM          0.000          0.000          0.000          0.000

       HELLMAN-FEYMAN-FORCE IN mRy/a.u. = |F|  Fx       Fy             Fz
:FHF004:   4.ATOM        405.386          0.000          0.000        405.386

:FIT001: SIGMA OF V-XC FIT FOR ATOM  1  0.9328891E-03
:FIT001: SIGMA OF V-XC FIT FOR ATOM  1  0.9328891E-03
:FIT002: SIGMA OF V-XC FIT FOR ATOM  2  0.6803668E-02
:FIT002: SIGMA OF V-XC FIT FOR ATOM  2  0.6803668E-02
:FIT003: SIGMA OF V-XC FIT FOR ATOM  3  0.4155882E-02
:FIT003: SIGMA OF V-XC FIT FOR ATOM  3  0.4155882E-02
:FIT004: SIGMA OF V-XC FIT FOR ATOM  4  0.9971508E-04
:FIT004: SIGMA OF V-XC FIT FOR ATOM  4  0.9971508E-04
:DEN  : DENSITY INTEGRALS =        -14770.15207497   (Ry)
       ELS_POTENTIAL_AT Z=0 and Z=0.5:  -0.62703  -0.62703
       ELS_POTENTIAL_AT Y=0 and Y=0.5:  -1.46734  -1.46734
:VZERO:v0,v0c,v0x  -1.63300  -0.62703  -1.00598 v5,v5c,v5x  -1.63300  -0.62703  -1.00598
:VZERY:v0,v0c,v0x  -2.46760  -1.46734  -1.00027 v5,v5c,v5x  -2.46760  -1.46734  -1.00027
:VZERX:v0,v0c,v0x  -0.83223   0.00000  -0.83223 v5,v5c,v5x  -0.83223   0.00000  -0.83223

          ATOMIC SPHERE DEPENDENT PARAMETERS FOR ATOM  La        
:e__0001: OVERALL ENERGY PARAMETER IS    0.4494
          OVERALL BASIS SET ON ATOM IS LAPW
:E0_0001: E( 0)=   -1.5920   E(BOTTOM)=   -2.294   E(TOP)=   -0.890
             APW+lo
:E0_0001: E( 0)=    0.4494
             LOCAL ORBITAL
:E1_0001: E( 1)=   -0.2260   E(BOTTOM)=   -1.240   E(TOP)=    0.788
             APW+lo
:E1_0001: E( 1)=    0.4494
             LOCAL ORBITAL
:E2_0001: E( 2)=    0.4494   E(BOTTOM)=    0.414   E(TOP)= -200.000
             APW+lo

          ATOMIC SPHERE DEPENDENT PARAMETERS FOR ATOM  Cu        
:e__0002: OVERALL ENERGY PARAMETER IS    0.4494
          OVERALL BASIS SET ON ATOM IS LAPW
:E1_0002: E( 1)=    0.4494
             APW+lo
:E1_0002: E( 1)=   -4.4900   E(BOTTOM)=   -4.603   E(TOP)=   -4.377
             LOCAL ORBITAL
:E2_0002: E( 2)=    0.4494   E(BOTTOM)=    0.034   E(TOP)=    0.864
             APW+lo
:E0_0002: E( 0)=    0.4494
             APW+lo

          ATOMIC SPHERE DEPENDENT PARAMETERS FOR ATOM  O         
:e__0003: OVERALL ENERGY PARAMETER IS    0.4494
          OVERALL BASIS SET ON ATOM IS LAPW
:E0_0003: E( 0)=   -0.7290   E(BOTTOM)=   -1.874   E(TOP)=    0.416
             APW+lo
:E0_0003: E( 0)=    0.4494
             LOCAL ORBITAL
:E1_0003: E( 1)=    0.4494
             APW+lo

          ATOMIC SPHERE DEPENDENT PARAMETERS FOR ATOM  O         
:e__0004: OVERALL ENERGY PARAMETER IS    0.4494
          OVERALL BASIS SET ON ATOM IS LAPW
:E0_0004: E( 0)=   -0.6730   E(BOTTOM)=   -1.810   E(TOP)=    0.464
             APW+lo
:E0_0004: E( 0)=    0.4494
             LOCAL ORBITAL
:E1_0004: E( 1)=    0.4494
             APW+lo

       K=   0.00000   0.00000   0.00000            1
:RKM  : MATRIX SIZE  823LOs:  58  RKM= 6.87  WEIGHT= 1.00  PGR:    
       EIGENVALUES ARE:
:EIG00001:      -4.4691153   -4.4691153   -4.4600669   -1.5890539   -1.5732985
:EIG00006:      -0.8702896   -0.7659460   -0.7521608   -0.7340868   -0.3718015
:EIG00011:      -0.3718015   -0.3678152   -0.3678152   -0.3655609   -0.3435066
:EIG00016:       0.1918425    0.1918425    0.2330672    0.2964456    0.2980434
:EIG00021:       0.3587264    0.3587264    0.3640394    0.3640394    0.4068975
:EIG00026:       0.4068975    0.4352101    0.4672101    0.4849671    0.4849671
:EIG00031:       0.5409370    0.5413554    0.8254461    0.8850117    0.9163248
:EIG00036:       0.9230146    0.9800812    0.9800812    0.9816090    0.9956420
:EIG00041:       0.9998804    1.0042119    1.0042119    1.0064849    1.0064849
:EIG00046:       1.0130763    1.0130763    1.0144477    1.0298686    1.0454997
 
:EIG00051:       1.0466384    1.0917525    1.0917525    1.0985546    1.1609937
:EIG00056:       1.2197607    1.2501637    1.2501637    1.5386665    1.6188356
:EIG00061:       1.6659671    1.7026481    1.7773357    1.7773357    1.8168963
:EIG00066:       1.8168963    1.9018633    2.0584492    2.0584492    2.0731526
:EIG00071:       2.2583516    2.2937298    2.2937298    2.3243843    2.3686364
:EIG00076:       2.4285775    2.4713913    2.5178680    2.5178680    2.5708673
:EIG00081:       2.5876724    2.5876724    2.6698686    2.6698686    2.7210926
:EIG00086:       2.7634229    2.8206646    2.8206646    2.8483167    2.9630010
:EIG00091:       2.9754027    2.9754027    2.9873700
       ********************************************************

:KPT   :      NUMBER OF K-POINTS:     102
:GMA  : POTENTIAL AND CHARGE CUT-OFF  14.00 Ry**.5
         Bandranges (emin - emax) and occupancy:
:BAN00022:  22    0.320855    0.358726  2.00000000
:BAN00023:  23    0.326247    0.382455  2.00000000
:BAN00024:  24    0.329783    0.385591  2.00000000
:BAN00025:  25    0.343858    0.406897  2.00000000
:BAN00026:  26    0.361278    0.406897  2.00000000
:BAN00027:  27    0.376243    0.435210  2.00000000
:BAN00028:  28    0.467087    0.559346  2.00000000
:BAN00029:  29    0.484967    0.560351  2.00000000
:BAN00030:  30    0.484967    0.567503  2.00000000
:BAN00031:  31    0.540683    0.588146  2.00000000
:BAN00032:  32    0.541355    0.780245  1.00000000
:BAN00033:  33    0.782610    0.940711  0.00000000
:BAN00034:  34    0.877881    0.956726  0.00000000
:BAN00035:  35    0.910949    0.969448  0.00000000
:BAN00036:  36    0.923015    0.982103  0.00000000
:BAN00037:  37    0.966707    0.984379  0.00000000
        Energy to separate low and high energystates:   -0.01490


:NOE  : NUMBER OF ELECTRONS          =  63.000

:FER  : F E R M I - ENERGY(TETRAH.M.)=   0.65124
:GMA  : POTENTIAL AND CHARGE CUT-OFF  14.00 Ry**.5
 
 
 
 
:POS001: ATOM   -1 POSITION = 0.00000 0.00000 0.63866  MULTIPLICITY = 2  ZZ= 57.000  La
 
       LMMAX 10
       LM=   0 0  1 0  2 0  3 0  4 0  4 4  5 0  5 4  6 0  6 4
 
:CHA001: TOTAL VALENCE CHARGE INSIDE SPHERE   1 =     7.116406
:PCS001: PARTIAL CHARGES SPHERE =  1 S,P,D,F,PZ,PXY,,D-Z2,D-XY,D-X2Y2,D-XZ,YZ
:QTL001: 1.8742 4.9739 0.1926 0.0709 1.6703 3.3039 0.0000 0.0597 0.0358 0.0231 0.0741 0.0000
        Q-s-low E-s-low   Q-p-low E-p-low   Q-d-low E-d-low   Q-f-low E-f-low
:EPL001:  1.8386 -1.5666    4.6378 -0.3868    0.0094 -0.6927    0.0032 -0.6771
        Q-s-hi  E-s-hi    Q-p-hi  E-p-hi    Q-d-hi  E-d-hi    Q-f-hi  E-f-hi
:EPH001:  0.0358  0.2830    0.3360  0.3293    0.1832  0.3236    0.0675  0.3658
:VZZ001: EFG INSIDE SPHERE   1 =   -14.977505      UP TO R =   2.34000
 
 
 
 
:POS002: ATOM   -2 POSITION = 0.00000 0.00000 0.00000  MULTIPLICITY = 1  ZZ= 29.000  Cu
 
       LMMAX  6
       LM=   0 0  2 0  4 0  4 4  6 0  6 4
 
:CHA002: TOTAL VALENCE CHARGE INSIDE SPHERE   2 =    14.927900
:PCS002: PARTIAL CHARGES SPHERE =  2 S,P,D,F,PZ,PXY,,D-Z2,D-XY,D-X2Y2,D-XZ,YZ
:QTL002: 0.1740 6.1431 8.5852 0.0205 2.0187 4.1245 0.0000 1.8228 1.8368 1.2877 3.6380 0.0000
        Q-s-low E-s-low   Q-p-low E-p-low   Q-d-low E-d-low   Q-f-low E-f-low
:EPL002:  0.0247 -0.8256    5.9999 -4.4487    0.0401 -0.7036    0.0036 -0.7240
        Q-s-hi  E-s-hi    Q-p-hi  E-p-hi    Q-d-hi  E-d-hi    Q-f-hi  E-f-hi
:EPH002:  0.1491  0.2030    0.1431  0.2403    8.5451  0.4921    0.0169  0.3120
:VZZ002: EFG INSIDE SPHERE   2 =   -17.503297      UP TO R =   1.88000
 
 
 
 
:POS003: ATOM   -3 POSITION = 0.50000 0.00000 0.00000  MULTIPLICITY = 2  ZZ=  8.000  O
 
       LMMAX 10
       LM=   0 0  2 0  2 2  4 0  4 2  4 4  6 0  6 2  6 4  6 6
 
:CHA003: TOTAL VALENCE CHARGE INSIDE SPHERE   3 =     5.777905
:PCS003: PARTIAL CHARGES SPHERE =  3 S,P,D,F,PX,PY,PZ,D-Z2,D-X2Y2,D-XY,D-XZ,D-YZ
:QTL003: 1.6692 4.0825 0.0206 0.0041 1.2635 1.4202 1.3989 0.0025 0.0059 0.0052 0.0050 0.0018
        Q-s-low E-s-low   Q-p-low E-p-low   Q-d-low E-d-low   Q-f-low E-f-low
:EPL003:  1.6414 -0.7908    0.0567 -0.4589    0.0031 -0.8757    0.0000 10.0000
        Q-s-hi  E-s-hi    Q-p-hi  E-p-hi    Q-d-hi  E-d-hi    Q-f-hi  E-f-hi
:EPH003:  0.0277  0.4316    4.0257  0.2884    0.0176  0.4738    0.0037  0.4243
 
                      VXX         VYY         VZZ       UP TO R
 
:VZZ003:             9.33033    -5.59007    -3.74026       1.670
 
 
 
 
:POS004: ATOM   -4 POSITION = 0.00000 0.00000 0.81770  MULTIPLICITY = 2  ZZ=  8.000  O
 
       LMMAX 10
       LM=   0 0  1 0  2 0  3 0  4 0  4 4  5 0  5 4  6 0  6 4
 
:CHA004: TOTAL VALENCE CHARGE INSIDE SPHERE   4 =     5.807343
:PCS004: PARTIAL CHARGES SPHERE =  4 S,P,D,F,PZ,PXY,,D-Z2,D-XY,D-X2Y2,D-XZ,YZ
:QTL004: 1.6791 4.1212 0.0058 0.0010 1.3904 2.7311 0.0000 0.0032 0.0009 0.0000 0.0015 0.0000
        Q-s-low E-s-low   Q-p-low E-p-low   Q-d-low E-d-low   Q-f-low E-f-low
:EPL004:  1.6684 -0.7156    0.0655 -0.4252    0.0032 -0.4922    0.0000 10.0000
        Q-s-hi  E-s-hi    Q-p-hi  E-p-hi    Q-d-hi  E-d-hi    Q-f-hi  E-f-hi
:EPH004:  0.0106  0.3997    4.0556  0.3584    0.0026  0.4153    0.0000 10.0000
:VZZ004: EFG INSIDE SPHERE   4 =    -1.485008      UP TO R =   1.67000
 
:CHA  : TOTAL VALENCE CHARGE INSIDE UNIT CELL =      63.000001
 
:SUM  : SUM OF EIGENVALUES =         -31.770631746
 

        1.ATOM      La                   14 CORE STATES
       CORE-FORCE in mRy/a.u. = |F|      Fx             Fy             Fz
:FCO001:   1.ATOM          7.135          0.000          0.000          7.135

:1S 001: 1S               -2844.527447200 Ry
:2S 001: 2S                -451.521498826 Ry
:2PP001: 2P*               -425.734385745 Ry
:2P 001: 2P                -395.369619151 Ry
:3S 001: 3S                 -95.536757898 Ry
:3PP001: 3P*                -84.670358297 Ry
:3P 001: 3P                 -78.752244700 Ry
:3DD001: 3D*                -59.729347904 Ry
:3D 001: 3D                 -58.463340160 Ry
:4S 001: 4S                 -18.241190263 Ry
:4PP001: 4P*                -14.243793233 Ry
:4P 001: 4P                 -12.985377551 Ry
:4DD001: 4D*                 -6.435452348 Ry
:4D 001: 4D                  -6.217112997 Ry

        2.ATOM      Cu                    5 CORE STATES
:1S 002: 1S                -649.527968346 Ry
:2S 002: 2S                 -77.252603573 Ry
:2PP002: 2P*                -67.566612679 Ry
:2P 002: 2P                 -66.060708526 Ry
:3S 002: 3S                  -7.600532273 Ry

        3.ATOM      O                     1 CORE STATES
:1S 003: 1S                 -36.701960986 Ry

        4.ATOM      O                     1 CORE STATES
       CORE-FORCE in mRy/a.u. = |F|      Fx             Fy             Fz
:FCO004:   4.ATOM        101.111          0.000          0.000       -101.111

:1S 004: 1S                 -36.667876448 Ry

       DENSITY AT NUCLEUS
        JATOM    VALENCE       SEMI-CORE            CORE           TOTAL

:RTO001:   1      486.169325        0.000000   537552.033111   538038.202436
:RTO002:   2        6.063432        0.000000    22630.455140    22636.518572
:RTO003:   3       15.783650        0.000000      303.964323      319.747973
:RTO004:   4       15.992193        0.000000      303.973781      319.965974
     
       CHARGES OF NEW CHARGE DENSITY
:NTO  : TOTAL   INTERSTITIAL CHARGE=   10.6687765
:NTO001: TOTAL   CHARGE IN SPHERE  1 =       53.1136340
:NTO002: TOTAL   CHARGE IN SPHERE  2 =       26.9250126
:NTO003: TOTAL   CHARGE IN SPHERE  3 =        7.7779070
:NTO004: TOTAL   CHARGE IN SPHERE  4 =        7.8073424

:NEC01: NUCLEAR AND ELECTRONIC CHARGE    175.00000   174.99156     1.00005
     
       CHARGES OF OLD CHARGE DENSITY
:OTO  : TOTAL   INTERSTITIAL CHARGE=   12.5997451
:OTO001: TOTAL   CHARGE IN SPHERE  1 =       53.4568115
:OTO002: TOTAL   CHARGE IN SPHERE  2 =       27.1308108
:OTO003: TOTAL   CHARGE IN SPHERE  3 =        7.1437771
:OTO004: TOTAL   CHARGE IN SPHERE  4 =        7.0341335

:NEC02: NUCLEAR AND ELECTRONIC CHARGE    175.00000   175.00000     1.00000
     
       CONVERGENCE TEST
:DTO001: TOTAL   DIFFERENCE CHARGE**2 IN SPHERE  1 =  0.2947400
:DTO002: TOTAL   DIFFERENCE CHARGE**2 IN SPHERE  2 =  0.2468991
:DTO003: TOTAL   DIFFERENCE CHARGE**2 IN SPHERE  3 =  0.5492092
:DTO004: TOTAL   DIFFERENCE CHARGE**2 IN SPHERE  4 =  0.6655647

:DIS  :  CHARGE DISTANCE       ( 0.6655647 for atom    4 spin 1)      0.4665610
:BIG check (qbig,qrms,qtot)    0.222D+00   0.351D+00   0.467D+00
 
******************************************************
* MULTISECANT MIXING OPTIONS                         *
* NFL Limit   0.100000                               *
* Diag Parm   0.000500                               *
* Standard Increase/Decrease Bounds                  *
* Plane Wave SQRT Dynamic Rescaling                  *
* Max Number of Memory Steps    8                    *
******************************************************
 
:PLANE:  INTERSTITIAL TOTAL     24.11799 DISTAN  0.238D+01 % 
:CHARG:  CLM CHARGE   TOTAL      5.19142 DISTAN  0.404D+01 % 
:REDuction and DMIX in Broyd:    0.4933    0.0987
:INFO :  Dynamic rescale   0.210D+01  0.100D+01  0.500D+01
:INFO :  Number of Memory Steps    1 Skipping    0
:INFO :  Bounds         0.270D-01  0.200D+00  0.199D+00  0.270D-01
:DIRM :  MEMORY 1/8 RESCALE  2.098 RED  0.927 PRED  1.000 NEXT  0.502
:INFO :  DMIXM and Projections     0.270D-01  0.502D+00
:DIRP :  |BROYD|= 0.116D+01 |PRATT|= 0.117D+00 ANGLE=   0.1 DEGREES
:DIRB :  |BROYD|= 0.262D+01 |PRATT|= 0.264D+00 ANGLE=   0.2 DEGREES
       MSEC1 MIXING SCHEME WITH 0.027
     
       CHARGES OF MIXED CHARGE DENSITY
:CTO  : TOTAL   INTERSTITIAL CHARGE=   12.0865594
:CTO001: TOTAL   CHARGE IN SPHERE  1 =       53.3652793
:CTO002: TOTAL   CHARGE IN SPHERE  2 =       27.0761070
:CTO003: TOTAL   CHARGE IN SPHERE  3 =        7.3130067
:CTO004: TOTAL   CHARGE IN SPHERE  4 =        7.2403808

:NEC03: NUCLEAR AND ELECTRONIC CHARGE    175.00000   175.00000     1.00000


:ENE  : ********** TOTAL ENERGY IN Ry =       -37903.78382126

       TOTAL FORCE IN mRy/a.u. = |F|     Fx             Fy             Fz        with/without FOR in case.in2
:FOR001:   1.ATOM          5.024          0.000          0.000         -5.024 partial forces
:FOR002:   2.ATOM          0.000          0.000          0.000          0.000 partial forces
:FOR003:   3.ATOM          0.000          0.000          0.000          0.000 partial forces
:FOR004:   4.ATOM        304.275          0.000          0.000        304.275 partial forces

       TOTAL FORCE WITH RESPECT TO GLOBAL CARTESIAN COORDINATES:
:FCA001:   1.ATOM                         0.000          0.000         -5.024 partial forces
:FCA002:   2.ATOM                         0.000          0.000          0.000 partial forces
:FCA003:   3.ATOM                         0.000          0.000          0.000 partial forces
:FCA004:   4.ATOM                         0.000          0.000        304.275 partial forces

       TOTAL FORCE WITH RESPECT TO THE GLOBAL COORDINATE SYSTEM:
:FGL001:   1.ATOM                 0.000000000     0.000000000    -5.024000000 partial forces
:FGL002:   2.ATOM                 0.000000000     0.000000000     0.000000000 partial forces
:FGL003:   3.ATOM                 0.000000000     0.000000000     0.000000000 partial forces
:FGL004:   4.ATOM                 0.000000000     0.000000000   304.275000000 partial forces


            ---------
:ITE003:  3. ITERATION
            ---------

:NATO :    4 INDEPENDEND AND    7 TOTAL ATOMS IN UNITCELL
       SUBSTANCE: La2CuO4                                                     

       LATTICE                      = B   
:POT  : POTENTIAL OPTION   13
:LAT  : LATTICE CONSTANTS=  7.15564  7.15564 24.80832    1.571    1.571    1.571
:VOL  : UNIT CELL VOLUME =     635.13208
       MODE OF CALCULATION IS       = RELA
       NON-SPINPOLARIZED CALCULATION
:IFFT  : FFT-parameters:   64   64  240 Factor: 2.00
       ATOMNUMBER=  1 La         VCOUL-ZERO =  0.17712E+00
:EFG001:                        EFG         =    -4.30273   *10**21  V / m**2
                               V20  TOT/SRF=    -3.72627    -0.00868
                               V22  TOT/SRF=     0.00000     0.00000
                               V22M TOT/SRF=     0.00000     0.00000
                               V21  TOT/SRF=     0.00000     0.00000
                               V21M TOT/SRF=     0.00000     0.00000

              2.15136    0.00000    0.00000        2.15136    0.00000    0.00000
              0.00000    2.15136    0.00000        0.00000    2.15136    0.00000
              0.00000    0.00000   -4.30273        0.00000    0.00000   -4.30273

         MAIN DIRECTIONS OF THE EFG   1.0000  0.0000  0.0000
                                      0.0000  1.0000  0.0000
                                      0.0000  0.0000  1.0000
:ANG001:  ANGLE WITH OLD X-AXIS =         0.0

:ETA001:                         ASYMM. ETA =     0.00000


       ATOMNUMBER=  2 Cu         VCOUL-ZERO =  0.40878E+00
:EFG002:                        EFG         =    -5.10646   *10**21  V / m**2
                               V20  TOT/SRF=    -4.42232    -0.19217
                               V22  TOT/SRF=     0.00000     0.00000
                               V22M TOT/SRF=     0.00000     0.00000
                               V21  TOT/SRF=     0.00000     0.00000
                               V21M TOT/SRF=     0.00000     0.00000

              2.55323    0.00000    0.00000        2.55323    0.00000    0.00000
              0.00000    2.55323    0.00000        0.00000    2.55323    0.00000
              0.00000    0.00000   -5.10646        0.00000    0.00000   -5.10646

         MAIN DIRECTIONS OF THE EFG   1.0000  0.0000  0.0000
                                      0.0000  1.0000  0.0000
                                      0.0000  0.0000  1.0000
:ANG002:  ANGLE WITH OLD X-AXIS =         0.0

:ETA002:                         ASYMM. ETA =     0.00000


       ATOMNUMBER=  3 O          VCOUL-ZERO =  0.64397E+00
:EFG003:                        EFG         =     3.10077   *10**21  V / m**2
                               V20  TOT/SRF=    -1.12645    -0.26980
                               V22  TOT/SRF=     2.45042     0.43520
                               V22M TOT/SRF=     0.00000     0.00000
                               V21  TOT/SRF=     0.00000     0.00000
                               V21M TOT/SRF=     0.00000     0.00000

              3.10077    0.00000    0.00000        3.10077    0.00000    0.00000
              0.00000   -1.80007    0.00000        0.00000   -1.80007    0.00000
              0.00000    0.00000   -1.30071        0.00000    0.00000   -1.30071

         MAIN DIRECTIONS OF THE EFG   1.0000  0.0000  0.0000
                                      0.0000  1.0000  0.0000
                                      0.0000  0.0000  1.0000
:ANG003:  ANGLE WITH OLD X-AXIS =         0.0

:ETA003:                         ASYMM. ETA =     0.16104


       ATOMNUMBER=  4 O          VCOUL-ZERO =  0.74570E+00
:EFG004:                        EFG         =    -0.22716   *10**21  V / m**2
                               V20  TOT/SRF=    -0.19673     0.18628
                               V22  TOT/SRF=     0.00000     0.00000
                               V22M TOT/SRF=     0.00000     0.00000
                               V21  TOT/SRF=     0.00000     0.00000
                               V21M TOT/SRF=     0.00000     0.00000

              0.11358    0.00000    0.00000        0.11358    0.00000    0.00000
              0.00000    0.11358    0.00000        0.00000    0.11358    0.00000
              0.00000    0.00000   -0.22716        0.00000    0.00000   -0.22716

         MAIN DIRECTIONS OF THE EFG   1.0000  0.0000  0.0000
                                      0.0000  1.0000  0.0000
                                      0.0000  0.0000  1.0000
:ANG004:  ANGLE WITH OLD X-AXIS =         0.0

:ETA004:                         ASYMM. ETA =     0.00000


       HELLMAN-FEYMAN-FORCE IN mRy/a.u. = |F|  Fx       Fy             Fz
:FHF001:   1.ATOM         56.895          0.000          0.000        -56.895

       HELLMAN-FEYMAN-FORCE IN mRy/a.u. = |F|  Fx       Fy             Fz
:FHF002:   2.ATOM          0.000          0.000          0.000          0.000

       HELLMAN-FEYMAN-FORCE IN mRy/a.u. = |F|  Fx       Fy             Fz
:FHF003:   3.ATOM          0.000          0.000          0.000          0.000

       HELLMAN-FEYMAN-FORCE IN mRy/a.u. = |F|  Fx       Fy             Fz
:FHF004:   4.ATOM        279.138          0.000          0.000        279.138

:FIT001: SIGMA OF V-XC FIT FOR ATOM  1  0.1435524E-02
:FIT001: SIGMA OF V-XC FIT FOR ATOM  1  0.1435524E-02
:FIT002: SIGMA OF V-XC FIT FOR ATOM  2  0.7535981E-02
:FIT002: SIGMA OF V-XC FIT FOR ATOM  2  0.7535981E-02
:FIT003: SIGMA OF V-XC FIT FOR ATOM  3  0.3005271E-02
:FIT003: SIGMA OF V-XC FIT FOR ATOM  3  0.3005271E-02
:FIT004: SIGMA OF V-XC FIT FOR ATOM  4  0.1192562E-03
:FIT004: SIGMA OF V-XC FIT FOR ATOM  4  0.1192562E-03
:DEN  : DENSITY INTEGRALS =        -14767.03458793   (Ry)
       ELS_POTENTIAL_AT Z=0 and Z=0.5:  -0.55426  -0.55426
       ELS_POTENTIAL_AT Y=0 and Y=0.5:  -1.44731  -1.44731
:VZERO:v0,v0c,v0x  -1.54994  -0.55426  -0.99568 v5,v5c,v5x  -1.54994  -0.55426  -0.99568
:VZERY:v0,v0c,v0x  -2.44504  -1.44731  -0.99773 v5,v5c,v5x  -2.44504  -1.44731  -0.99773
:VZERX:v0,v0c,v0x  -0.82375   0.00000  -0.82375 v5,v5c,v5x  -0.82375   0.00000  -0.82375

          ATOMIC SPHERE DEPENDENT PARAMETERS FOR ATOM  La        
:e__0001: OVERALL ENERGY PARAMETER IS    0.4512
          OVERALL BASIS SET ON ATOM IS LAPW
:E0_0001: E( 0)=   -1.6520   E(BOTTOM)=   -2.348   E(TOP)=   -0.956
             APW+lo
:E0_0001: E( 0)=    0.4512
             LOCAL ORBITAL
:E1_0001: E( 1)=   -0.2850   E(BOTTOM)=   -1.294   E(TOP)=    0.724
             APW+lo
:E1_0001: E( 1)=    0.4512
             LOCAL ORBITAL
:E2_0001: E( 2)=    0.4512   E(BOTTOM)=    0.366   E(TOP)= -200.000
             APW+lo

          ATOMIC SPHERE DEPENDENT PARAMETERS FOR ATOM  Cu        
:e__0002: OVERALL ENERGY PARAMETER IS    0.4512
          OVERALL BASIS SET ON ATOM IS LAPW
:E1_0002: E( 1)=    0.4512
             APW+lo
:E1_0002: E( 1)=   -4.5035   E(BOTTOM)=   -4.616   E(TOP)=   -4.391
             LOCAL ORBITAL
:E2_0002: E( 2)=    0.4387   E(BOTTOM)=    0.026   E(TOP)=    0.851
             APW+lo
:E0_0002: E( 0)=    0.4512
             APW+lo

          ATOMIC SPHERE DEPENDENT PARAMETERS FOR ATOM  O         
:e__0003: OVERALL ENERGY PARAMETER IS    0.4512
          OVERALL BASIS SET ON ATOM IS LAPW
:E0_0003: E( 0)=   -0.5790   E(BOTTOM)=   -1.748   E(TOP)=    0.590
             APW+lo
:E0_0003: E( 0)=    0.4512
             LOCAL ORBITAL
:E1_0003: E( 1)=    0.4512
             APW+lo

          ATOMIC SPHERE DEPENDENT PARAMETERS FOR ATOM  O         
:e__0004: OVERALL ENERGY PARAMETER IS    0.4512
          OVERALL BASIS SET ON ATOM IS LAPW
:E0_0004: E( 0)=   -0.4860   E(BOTTOM)=   -1.652   E(TOP)=    0.680
             APW+lo
:E0_0004: E( 0)=    0.4512
             LOCAL ORBITAL
:E1_0004: E( 1)=    0.4512
             APW+lo

       K=   0.00000   0.00000   0.00000            1
:RKM  : MATRIX SIZE  823LOs:  58  RKM= 6.87  WEIGHT= 1.00  PGR:    
       EIGENVALUES ARE:
:EIG00001:      -4.4867961   -4.4867961   -4.4634941   -1.6424701   -1.6296000
:EIG00006:      -0.7705313   -0.6384050   -0.6220082   -0.5874410   -0.4196452
:EIG00011:      -0.4196452   -0.4152104   -0.4152104   -0.3931591   -0.3365420
:EIG00016:       0.2870103    0.2870103    0.3313635    0.3846404    0.3958450
:EIG00021:       0.4557603    0.4658811    0.4658811    0.4830420    0.4830420
:EIG00026:       0.5021572    0.5021572    0.5311336    0.5489375    0.5489375
:EIG00031:       0.5608411    0.5783921    0.8056695    0.8629230    0.8777927
:EIG00036:       0.9155705    0.9172911    0.9172911    0.9277152    0.9305807
:EIG00041:       0.9364157    0.9364157    0.9366851    0.9394534    0.9394534
:EIG00046:       0.9519353    0.9534321    0.9534321    0.9898486    1.0579614
 
:EIG00051:       1.0657948    1.0728565    1.0833485    1.0833485    1.1305772
:EIG00056:       1.2451005    1.2451005    1.2474843    1.5844524    1.6276384
:EIG00061:       1.6573785    1.6930174    1.8165585    1.8165585    1.8479688
:EIG00066:       1.8479688    1.9126484    2.0601474    2.0601474    2.0758421
:EIG00071:       2.2615401    2.3248565    2.3385282    2.3385282    2.3545905
:EIG00076:       2.4420954    2.4621143    2.5415210    2.5415210    2.5665851
:EIG00081:       2.6169223    2.6169223    2.6912129    2.6912129    2.7542765
:EIG00086:       2.7695494    2.8209190    2.8209190    2.8847659    2.9572049
:EIG00091:       2.9702660    2.9702660
       ********************************************************

:KPT   :      NUMBER OF K-POINTS:     102
:GMA  : POTENTIAL AND CHARGE CUT-OFF  14.00 Ry**.5
         Bandranges (emin - emax) and occupancy:
:BAN00022:  22    0.415156    0.465881  2.00000000
:BAN00023:  23    0.426645    0.465881  2.00000000
:BAN00024:  24    0.442291    0.486564  2.00000000
:BAN00025:  25    0.463345    0.541369  2.00000000
:BAN00026:  26    0.473747    0.543471  2.00000000
:BAN00027:  27    0.499464    0.547060  2.00000000
:BAN00028:  28    0.510513    0.584957  2.00000000
:BAN00029:  29    0.524595    0.589504  2.00000000
:BAN00030:  30    0.538169    0.592886  2.00000000
:BAN00031:  31    0.547229    0.643293  2.00000000
:BAN00032:  32    0.578392    0.836329  0.99998708
:BAN00033:  33    0.760891    0.899847  0.00000000
:BAN00034:  34    0.862923    0.905977  0.00000000
:BAN00035:  35    0.877152    0.909389  0.00000000
:BAN00036:  36    0.905468    0.921245  0.00000000
:BAN00037:  37    0.909572    0.924537  0.00000000
        Energy to separate low and high energystates:    0.06624


:NOE  : NUMBER OF ELECTRONS          =  63.000

:FER  : F E R M I - ENERGY(TETRAH.M.)=   0.68690
:GMA  : POTENTIAL AND CHARGE CUT-OFF  14.00 Ry**.5
 
 
 
 
:POS001: ATOM   -1 POSITION = 0.00000 0.00000 0.63866  MULTIPLICITY = 2  ZZ= 57.000  La
 
       LMMAX 10
       LM=   0 0  1 0  2 0  3 0  4 0  4 4  5 0  5 4  6 0  6 4
 
:CHA001: TOTAL VALENCE CHARGE INSIDE SPHERE   1 =     7.375791
:PCS001: PARTIAL CHARGES SPHERE =  1 S,P,D,F,PZ,PXY,,D-Z2,D-XY,D-X2Y2,D-XZ,YZ
:QTL001: 1.8868 5.0283 0.3095 0.1462 1.6873 3.3412 0.0000 0.0923 0.0589 0.0410 0.1174 0.0000
        Q-s-low E-s-low   Q-p-low E-p-low   Q-d-low E-d-low   Q-f-low E-f-low
:EPL001:  1.8452 -1.6221    4.7494 -0.4298    0.0119 -0.5728    0.0038 -0.5578
        Q-s-hi  E-s-hi    Q-p-hi  E-p-hi    Q-d-hi  E-d-hi    Q-f-hi  E-f-hi
:EPH001:  0.0418  0.3956    0.2789  0.4393    0.2976  0.4368    0.1424  0.4915
:VZZ001: EFG INSIDE SPHERE   1 =   -15.673319      UP TO R =   2.34000
 
 
 
 
:POS002: ATOM   -2 POSITION = 0.00000 0.00000 0.00000  MULTIPLICITY = 1  ZZ= 29.000  Cu
 
       LMMAX  6
       LM=   0 0  2 0  4 0  4 4  6 0  6 4
 
:CHA002: TOTAL VALENCE CHARGE INSIDE SPHERE   2 =    15.148116
:PCS002: PARTIAL CHARGES SPHERE =  2 S,P,D,F,PZ,PXY,,D-Z2,D-XY,D-X2Y2,D-XZ,YZ
:QTL002: 0.1989 6.1680 8.7550 0.0212 2.0267 4.1412 0.0000 1.8274 1.8467 1.4280 3.6527 0.0000
        Q-s-low E-s-low   Q-p-low E-p-low   Q-d-low E-d-low   Q-f-low E-f-low
:EPL002:  0.0291 -0.7022    6.0031 -4.4592    0.0459 -0.6153    0.0036 -0.6180
        Q-s-hi  E-s-hi    Q-p-hi  E-p-hi    Q-d-hi  E-d-hi    Q-f-hi  E-f-hi
:EPH002:  0.1700  0.2855    0.1649  0.3461    8.7093  0.4853    0.0175  0.4293
:VZZ002: EFG INSIDE SPHERE   2 =    -9.421825      UP TO R =   1.88000
 
 
 
 
:POS003: ATOM   -3 POSITION = 0.50000 0.00000 0.00000  MULTIPLICITY = 2  ZZ=  8.000  O
 
       LMMAX 10
       LM=   0 0  2 0  2 2  4 0  4 2  4 4  6 0  6 2  6 4  6 6
 
:CHA003: TOTAL VALENCE CHARGE INSIDE SPHERE   3 =     5.423531
:PCS003: PARTIAL CHARGES SPHERE =  3 S,P,D,F,PX,PY,PZ,D-Z2,D-X2Y2,D-XY,D-XZ,D-YZ
:QTL003: 1.6417 3.7554 0.0207 0.0043 1.1523 1.3162 1.2868 0.0028 0.0060 0.0050 0.0049 0.0018
        Q-s-low E-s-low   Q-p-low E-p-low   Q-d-low E-d-low   Q-f-low E-f-low
:EPL003:  1.6045 -0.6669    0.0370 -0.5221    0.0029 -0.9099    0.0000 10.0000
        Q-s-hi  E-s-hi    Q-p-hi  E-p-hi    Q-d-hi  E-d-hi    Q-f-hi  E-f-hi
:EPH003:  0.0370  0.4829    3.7185  0.3938    0.0175  0.4798    0.0038  0.4322
 
                      VXX         VYY         VZZ       UP TO R
 
:VZZ003:             8.83002    -5.63376    -3.19624       1.670
 
 
 
 
:POS004: ATOM   -4 POSITION = 0.00000 0.00000 0.81770  MULTIPLICITY = 2  ZZ=  8.000  O
 
       LMMAX 10
       LM=   0 0  1 0  2 0  3 0  4 0  4 4  5 0  5 4  6 0  6 4
 
:CHA004: TOTAL VALENCE CHARGE INSIDE SPHERE   4 =     5.290700
:PCS004: PARTIAL CHARGES SPHERE =  4 S,P,D,F,PZ,PXY,,D-Z2,D-XY,D-X2Y2,D-XZ,YZ
:QTL004: 1.6404 3.6432 0.0061 0.0012 1.2440 2.3991 0.0000 0.0033 0.0009 0.0000 0.0018 0.0000
        Q-s-low E-s-low   Q-p-low E-p-low   Q-d-low E-d-low   Q-f-low E-f-low
:EPL004:  1.6255 -0.5580    0.0415 -0.4722    0.0029 -0.5329    0.0000 10.0000
        Q-s-hi  E-s-hi    Q-p-hi  E-p-hi    Q-d-hi  E-d-hi    Q-f-hi  E-f-hi
:EPH004:  0.0147  0.4519    3.6019  0.4851    0.0034  0.4730    0.0000 10.0000
:VZZ004: EFG INSIDE SPHERE   4 =    -2.416155      UP TO R =   1.67000
 
:CHA  : TOTAL VALENCE CHARGE INSIDE UNIT CELL =      62.999987
 
:SUM  : SUM OF EIGENVALUES =         -28.822761677
 

        1.ATOM      La                   14 CORE STATES
       CORE-FORCE in mRy/a.u. = |F|      Fx             Fy             Fz
:FCO001:   1.ATOM         51.351          0.000          0.000         51.351

:1S 001: 1S               -2844.626596623 Ry
:2S 001: 2S                -451.616286159 Ry
:2PP001: 2P*               -425.829926953 Ry
:2P 001: 2P                -395.464870799 Ry
:3S 001: 3S                 -95.624842349 Ry
:3PP001: 3P*                -84.758773280 Ry
:3P 001: 3P                 -78.840297067 Ry
:3DD001: 3D*                -59.818308291 Ry
:3D 001: 3D                 -58.552176512 Ry
:4S 001: 4S                 -18.320597160 Ry
:4PP001: 4P*                -14.322798951 Ry
:4P 001: 4P                 -13.063836857 Ry
:4DD001: 4D*                 -6.512630374 Ry
:4D 001: 4D                  -6.294087030 Ry

        2.ATOM      Cu                    5 CORE STATES
:1S 002: 1S                -649.560345174 Ry
:2S 002: 2S                 -77.276077827 Ry
:2PP002: 2P*                -67.591162236 Ry
:2P 002: 2P                 -66.085132687 Ry
:3S 002: 3S                  -7.613983775 Ry

        3.ATOM      O                     1 CORE STATES
:1S 003: 1S                 -36.432366367 Ry

        4.ATOM      O                     1 CORE STATES
       CORE-FORCE in mRy/a.u. = |F|      Fx             Fy             Fz
:FCO004:   4.ATOM         64.222          0.000          0.000        -64.222

:1S 004: 1S                 -36.334509129 Ry

       DENSITY AT NUCLEUS
        JATOM    VALENCE       SEMI-CORE            CORE           TOTAL

:RTO001:   1      493.325319        0.000000   537554.322591   538047.647910
:RTO002:   2        6.998244        0.000000    22630.832570    22637.830813
:RTO003:   3       15.144905        0.000000      303.868045      319.012951
:RTO004:   4       15.137543        0.000000      303.848585      318.986128
     
       CHARGES OF NEW CHARGE DENSITY
:NTO  : TOTAL   INTERSTITIAL CHARGE=   11.6718175
:NTO001: TOTAL   CHARGE IN SPHERE  1 =       53.3730727
:NTO002: TOTAL   CHARGE IN SPHERE  2 =       27.1452530
:NTO003: TOTAL   CHARGE IN SPHERE  3 =        7.4235304
:NTO004: TOTAL   CHARGE IN SPHERE  4 =        7.2906981

:NEC01: NUCLEAR AND ELECTRONIC CHARGE    175.00000   174.99167     1.00005
     
       CHARGES OF OLD CHARGE DENSITY
:OTO  : TOTAL   INTERSTITIAL CHARGE=   12.0865594
:OTO001: TOTAL   CHARGE IN SPHERE  1 =       53.3652793
:OTO002: TOTAL   CHARGE IN SPHERE  2 =       27.0761070
:OTO003: TOTAL   CHARGE IN SPHERE  3 =        7.3130067
:OTO004: TOTAL   CHARGE IN SPHERE  4 =        7.2403808

:NEC02: NUCLEAR AND ELECTRONIC CHARGE    175.00000   175.00000     1.00000
     
       CONVERGENCE TEST
:DTO001: TOTAL   DIFFERENCE CHARGE**2 IN SPHERE  1 =  0.0861967
:DTO002: TOTAL   DIFFERENCE CHARGE**2 IN SPHERE  2 =  0.1999021
:DTO003: TOTAL   DIFFERENCE CHARGE**2 IN SPHERE  3 =  0.1708931
:DTO004: TOTAL   DIFFERENCE CHARGE**2 IN SPHERE  4 =  0.2025887

:DIS  :  CHARGE DISTANCE       ( 0.2025887 for atom    4 spin 1)      0.1598941
:BIG check (qbig,qrms,qtot)    0.675D-01   0.118D+00   0.160D+00
 
******************************************************
* MULTISECANT MIXING OPTIONS                         *
* NFL Limit   0.100000                               *
* Diag Parm   0.000500                               *
* Standard Increase/Decrease Bounds                  *
* Plane Wave SQRT Dynamic Rescaling                  *
* Max Number of Memory Steps    8                    *
******************************************************
 
:PLANE:  INTERSTITIAL TOTAL     25.40388 DISTAN  0.167D+01 % 
:CHARG:  CLM CHARGE   TOTAL      5.19669 DISTAN  0.146D+01 % 
:REDuction and DMIX in Broyd:    0.8263    0.1653
:INFO :  Dynamic rescale   0.180D+01  0.100D+01  0.500D+01
:INFO :  Number of Memory Steps    2 Skipping    0
:INFO :  Bounds         0.539D-01  0.200D+00  0.102D+00  0.539D-01
:DIRM :  MEMORY 2/8 RESCALE  1.803 RED  0.440 PRED  0.502 NEXT  0.979
:INFO :  DMIXM and Projections     0.539D-01  0.979D+00
:DIRP :  |BROYD|= 0.104D+00 |PRATT|= 0.149D+00 ANGLE=   5.5 DEGREES
:DIRB :  |BROYD|= 0.223D+00 |PRATT|= 0.227D+00 ANGLE=  32.8 DEGREES
       MSEC1 MIXING SCHEME WITH 0.054
     
       CHARGES OF MIXED CHARGE DENSITY
:CTO  : TOTAL   INTERSTITIAL CHARGE=   12.0899279
:CTO001: TOTAL   CHARGE IN SPHERE  1 =       53.3705098
:CTO002: TOTAL   CHARGE IN SPHERE  2 =       27.0826501
:CTO003: TOTAL   CHARGE IN SPHERE  3 =        7.3105864
:CTO004: TOTAL   CHARGE IN SPHERE  4 =        7.2326147

:NEC03: NUCLEAR AND ELECTRONIC CHARGE    175.00000   175.00000     1.00000


:ENE  : ********** TOTAL ENERGY IN Ry =       -37903.50251587

       TOTAL FORCE IN mRy/a.u. = |F|     Fx             Fy             Fz        with/without FOR in case.in2
:FOR001:   1.ATOM          5.544          0.000          0.000         -5.544 partial forces
:FOR002:   2.ATOM          0.000          0.000          0.000          0.000 partial forces
:FOR003:   3.ATOM          0.000          0.000          0.000          0.000 partial forces
:FOR004:   4.ATOM        214.916          0.000          0.000        214.916 partial forces

       TOTAL FORCE WITH RESPECT TO GLOBAL CARTESIAN COORDINATES:
:FCA001:   1.ATOM                         0.000          0.000         -5.544 partial forces
:FCA002:   2.ATOM                         0.000          0.000          0.000 partial forces
:FCA003:   3.ATOM                         0.000          0.000          0.000 partial forces
:FCA004:   4.ATOM                         0.000          0.000        214.916 partial forces

       TOTAL FORCE WITH RESPECT TO THE GLOBAL COORDINATE SYSTEM:
:FGL001:   1.ATOM                 0.000000000     0.000000000    -5.544000000 partial forces
:FGL002:   2.ATOM                 0.000000000     0.000000000     0.000000000 partial forces
:FGL003:   3.ATOM                 0.000000000     0.000000000     0.000000000 partial forces
:FGL004:   4.ATOM                 0.000000000     0.000000000   214.916000000 partial forces


            ---------
:ITE004:  4. ITERATION
            ---------

:NATO :    4 INDEPENDEND AND    7 TOTAL ATOMS IN UNITCELL
       SUBSTANCE: La2CuO4                                                     

       LATTICE                      = B   
:POT  : POTENTIAL OPTION   13
:LAT  : LATTICE CONSTANTS=  7.15564  7.15564 24.80832    1.571    1.571    1.571
:VOL  : UNIT CELL VOLUME =     635.13208
       MODE OF CALCULATION IS       = RELA
       NON-SPINPOLARIZED CALCULATION
:IFFT  : FFT-parameters:   64   64  240 Factor: 2.00
       ATOMNUMBER=  1 La         VCOUL-ZERO =  0.17820E+00
:EFG001:                        EFG         =    -4.73683   *10**21  V / m**2
                               V20  TOT/SRF=    -4.10221    -0.01036
                               V22  TOT/SRF=     0.00000     0.00000
                               V22M TOT/SRF=     0.00000     0.00000
                               V21  TOT/SRF=     0.00000     0.00000
                               V21M TOT/SRF=     0.00000     0.00000

              2.36841    0.00000    0.00000        2.36841    0.00000    0.00000
              0.00000    2.36841    0.00000        0.00000    2.36841    0.00000
              0.00000    0.00000   -4.73683        0.00000    0.00000   -4.73683

         MAIN DIRECTIONS OF THE EFG   1.0000  0.0000  0.0000
                                      0.0000  1.0000  0.0000
                                      0.0000  0.0000  1.0000
:ANG001:  ANGLE WITH OLD X-AXIS =         0.0

:ETA001:                         ASYMM. ETA =     0.00000


       ATOMNUMBER=  2 Cu         VCOUL-ZERO =  0.41057E+00
:EFG002:                        EFG         =    -5.12499   *10**21  V / m**2
                               V20  TOT/SRF=    -4.43837    -0.19128
                               V22  TOT/SRF=     0.00000     0.00000
                               V22M TOT/SRF=     0.00000     0.00000
                               V21  TOT/SRF=     0.00000     0.00000
                               V21M TOT/SRF=     0.00000     0.00000

              2.56250    0.00000    0.00000        2.56250    0.00000    0.00000
              0.00000    2.56250    0.00000        0.00000    2.56250    0.00000
              0.00000    0.00000   -5.12499        0.00000    0.00000   -5.12499

         MAIN DIRECTIONS OF THE EFG   1.0000  0.0000  0.0000
                                      0.0000  1.0000  0.0000
                                      0.0000  0.0000  1.0000
:ANG002:  ANGLE WITH OLD X-AXIS =         0.0

:ETA002:                         ASYMM. ETA =     0.00000


       ATOMNUMBER=  3 O          VCOUL-ZERO =  0.64529E+00
:EFG003:                        EFG         =     3.32235   *10**21  V / m**2
                               V20  TOT/SRF=    -1.18674    -0.26947
                               V22  TOT/SRF=     2.63718     0.43740
                               V22M TOT/SRF=     0.00000     0.00000
                               V21  TOT/SRF=     0.00000     0.00000
                               V21M TOT/SRF=     0.00000     0.00000

              3.32235    0.00000    0.00000        3.32235    0.00000    0.00000
              0.00000   -1.95202    0.00000        0.00000   -1.95202    0.00000
              0.00000    0.00000   -1.37033        0.00000    0.00000   -1.37033

         MAIN DIRECTIONS OF THE EFG   1.0000  0.0000  0.0000
                                      0.0000  1.0000  0.0000
                                      0.0000  0.0000  1.0000
:ANG003:  ANGLE WITH OLD X-AXIS =         0.0

:ETA003:                         ASYMM. ETA =     0.17508


       ATOMNUMBER=  4 O          VCOUL-ZERO =  0.74406E+00
:EFG004:                        EFG         =    -0.31791   *10**21  V / m**2
                               V20  TOT/SRF=    -0.27531     0.18386
                               V22  TOT/SRF=     0.00000     0.00000
                               V22M TOT/SRF=     0.00000     0.00000
                               V21  TOT/SRF=     0.00000     0.00000
                               V21M TOT/SRF=     0.00000     0.00000

              0.15895    0.00000    0.00000        0.15895    0.00000    0.00000
              0.00000    0.15895    0.00000        0.00000    0.15895    0.00000
              0.00000    0.00000   -0.31791        0.00000    0.00000   -0.31791

         MAIN DIRECTIONS OF THE EFG   1.0000  0.0000  0.0000
                                      0.0000  1.0000  0.0000
                                      0.0000  0.0000  1.0000
:ANG004:  ANGLE WITH OLD X-AXIS =         0.0

:ETA004:                         ASYMM. ETA =     0.00000


       HELLMAN-FEYMAN-FORCE IN mRy/a.u. = |F|  Fx       Fy             Fz
:FHF001:   1.ATOM         93.372          0.000          0.000        -93.372

       HELLMAN-FEYMAN-FORCE IN mRy/a.u. = |F|  Fx       Fy             Fz
:FHF002:   2.ATOM          0.000          0.000          0.000          0.000

       HELLMAN-FEYMAN-FORCE IN mRy/a.u. = |F|  Fx       Fy             Fz
:FHF003:   3.ATOM          0.000          0.000          0.000          0.000

       HELLMAN-FEYMAN-FORCE IN mRy/a.u. = |F|  Fx       Fy             Fz
:FHF004:   4.ATOM        263.036          0.000          0.000        263.036

:FIT001: SIGMA OF V-XC FIT FOR ATOM  1  0.1502638E-02
:FIT001: SIGMA OF V-XC FIT FOR ATOM  1  0.1502638E-02
:FIT002: SIGMA OF V-XC FIT FOR ATOM  2  0.7565209E-02
:FIT002: SIGMA OF V-XC FIT FOR ATOM  2  0.7565209E-02
:FIT003: SIGMA OF V-XC FIT FOR ATOM  3  0.2909607E-02
:FIT003: SIGMA OF V-XC FIT FOR ATOM  3  0.2909607E-02
:FIT004: SIGMA OF V-XC FIT FOR ATOM  4  0.1083860E-03
:FIT004: SIGMA OF V-XC FIT FOR ATOM  4  0.1083860E-03
:DEN  : DENSITY INTEGRALS =        -14767.99400601   (Ry)
       ELS_POTENTIAL_AT Z=0 and Z=0.5:  -0.55175  -0.55175
       ELS_POTENTIAL_AT Y=0 and Y=0.5:  -1.44902  -1.44902
:VZERO:v0,v0c,v0x  -1.54659  -0.55175  -0.99484 v5,v5c,v5x  -1.54659  -0.55175  -0.99484
:VZERY:v0,v0c,v0x  -2.44687  -1.44902  -0.99785 v5,v5c,v5x  -2.44687  -1.44902  -0.99785
:VZERX:v0,v0c,v0x  -0.82378   0.00000  -0.82378 v5,v5c,v5x  -0.82378   0.00000  -0.82378

          ATOMIC SPHERE DEPENDENT PARAMETERS FOR ATOM  La        
:e__0001: OVERALL ENERGY PARAMETER IS    0.4869
          OVERALL BASIS SET ON ATOM IS LAPW
:E0_0001: E( 0)=   -1.6480   E(BOTTOM)=   -2.346   E(TOP)=   -0.950
             APW+lo
:E0_0001: E( 0)=    0.4869
             LOCAL ORBITAL
:E1_0001: E( 1)=   -0.2810   E(BOTTOM)=   -1.290   E(TOP)=    0.728
             APW+lo
:E1_0001: E( 1)=    0.4869
             LOCAL ORBITAL
:E2_0001: E( 2)=    0.4869   E(BOTTOM)=    0.367   E(TOP)= -200.000
             APW+lo

          ATOMIC SPHERE DEPENDENT PARAMETERS FOR ATOM  Cu        
:e__0002: OVERALL ENERGY PARAMETER IS    0.4869
          OVERALL BASIS SET ON ATOM IS LAPW
:E1_0002: E( 1)=    0.4869
             APW+lo
:E1_0002: E( 1)=   -4.4900   E(BOTTOM)=   -4.603   E(TOP)=   -4.377
             LOCAL ORBITAL
:E2_0002: E( 2)=    0.4494   E(BOTTOM)=    0.037   E(TOP)=    0.862
             APW+lo
:E0_0002: E( 0)=    0.4869
             APW+lo

          ATOMIC SPHERE DEPENDENT PARAMETERS FOR ATOM  O         
:e__0003: OVERALL ENERGY PARAMETER IS    0.4869
          OVERALL BASIS SET ON ATOM IS LAPW
:E0_0003: E( 0)=   -0.5820   E(BOTTOM)=   -1.750   E(TOP)=    0.586
             APW+lo
:E0_0003: E( 0)=    0.4869
             LOCAL ORBITAL
:E1_0003: E( 1)=    0.4869
             APW+lo

          ATOMIC SPHERE DEPENDENT PARAMETERS FOR ATOM  O         
:e__0004: OVERALL ENERGY PARAMETER IS    0.4869
          OVERALL BASIS SET ON ATOM IS LAPW
:E0_0004: E( 0)=   -0.4960   E(BOTTOM)=   -1.660   E(TOP)=    0.668
             APW+lo
:E0_0004: E( 0)=    0.4869
             LOCAL ORBITAL
:E1_0004: E( 1)=    0.4869
             APW+lo

       K=   0.00000   0.00000   0.00000            1
:RKM  : MATRIX SIZE  823LOs:  58  RKM= 6.87  WEIGHT= 1.00  PGR:    
       EIGENVALUES ARE:
:EIG00001:      -4.4734825   -4.4734825   -4.4495264   -1.6391688   -1.6261884
:EIG00006:      -0.7717949   -0.6406367   -0.6278389   -0.5945300   -0.4170592
:EIG00011:      -0.4170592   -0.4125550   -0.4125550   -0.3915589   -0.3368251
:EIG00016:       0.2858910    0.2858910    0.3290276    0.3834391    0.3942580
:EIG00021:       0.4665602    0.4697013    0.4697013    0.4798557    0.4798557
:EIG00026:       0.5028690    0.5028690    0.5422365    0.5422365    0.5423207
:EIG00031:       0.5686054    0.5719917    0.8072021    0.8640610    0.8814397
:EIG00036:       0.9197800    0.9213896    0.9213896    0.9318631    0.9348184
:EIG00041:       0.9359624    0.9404576    0.9404576    0.9434334    0.9434334
:EIG00046:       0.9559110    0.9569359    0.9569359    0.9923577    1.0579306
 
:EIG00051:       1.0672496    1.0745422    1.0842396    1.0842396    1.1321082
:EIG00056:       1.2463106    1.2463106    1.2467125    1.5838675    1.6286829
:EIG00061:       1.6583639    1.6928005    1.8157627    1.8157627    1.8471835
:EIG00066:       1.8471835    1.9136639    2.0593300    2.0593300    2.0761709
:EIG00071:       2.2594550    2.3247490    2.3350436    2.3350436    2.3552054
:EIG00076:       2.4413248    2.4623248    2.5409035    2.5409035    2.5645629
:EIG00081:       2.6156564    2.6156564    2.6882663    2.6882663    2.7543529
:EIG00086:       2.7676470    2.8204904    2.8204904    2.8821762    2.9576909
:EIG00091:       2.9682620    2.9682620
       ********************************************************

:KPT   :      NUMBER OF K-POINTS:     102
:GMA  : POTENTIAL AND CHARGE CUT-OFF  14.00 Ry**.5
         Bandranges (emin - emax) and occupancy:
:BAN00022:  22    0.413594    0.469701  2.00000000
:BAN00023:  23    0.425922    0.469701  2.00000000
:BAN00024:  24    0.437902    0.485382  2.00000000
:BAN00025:  25    0.458093    0.536033  2.00000000
:BAN00026:  26    0.470466    0.536632  2.00000000
:BAN00027:  27    0.494947    0.540806  2.00000000
:BAN00028:  28    0.512117    0.592279  2.00000000
:BAN00029:  29    0.526620    0.596155  2.00000000
:BAN00030:  30    0.536273    0.599205  2.00000000
:BAN00031:  31    0.543144    0.645719  2.00000000
:BAN00032:  32    0.571992    0.841294  1.00000000
:BAN00033:  33    0.761978    0.903600  0.00000000
:BAN00034:  34    0.864061    0.909447  0.00000000
:BAN00035:  35    0.880758    0.913245  0.00000000
:BAN00036:  36    0.909552    0.925504  0.00000000
:BAN00037:  37    0.913214    0.928476  0.00000000
        Energy to separate low and high energystates:    0.06623


:NOE  : NUMBER OF ELECTRONS          =  63.000

:FER  : F E R M I - ENERGY(TETRAH.M.)=   0.69211
:GMA  : POTENTIAL AND CHARGE CUT-OFF  14.00 Ry**.5
 
 
 
 
:POS001: ATOM   -1 POSITION = 0.00000 0.00000 0.63866  MULTIPLICITY = 2  ZZ= 57.000  La
 
       LMMAX 10
       LM=   0 0  1 0  2 0  3 0  4 0  4 4  5 0  5 4  6 0  6 4
 
:CHA001: TOTAL VALENCE CHARGE INSIDE SPHERE   1 =     7.360248
:PCS001: PARTIAL CHARGES SPHERE =  1 S,P,D,F,PZ,PXY,,D-Z2,D-XY,D-X2Y2,D-XZ,YZ
:QTL001: 1.8861 5.0258 0.3032 0.1403 1.6865 3.3392 0.0000 0.0904 0.0577 0.0402 0.1153 0.0000
        Q-s-low E-s-low   Q-p-low E-p-low   Q-d-low E-d-low   Q-f-low E-f-low
:EPL001:  1.8446 -1.6188    4.7450 -0.4271    0.0118 -0.5784    0.0038 -0.5631
        Q-s-hi  E-s-hi    Q-p-hi  E-p-hi    Q-d-hi  E-d-hi    Q-f-hi  E-f-hi
:EPH001:  0.0415  0.3913    0.2806  0.4358    0.2914  0.4327    0.1367  0.4870
:VZZ001: EFG INSIDE SPHERE   1 =   -15.847124      UP TO R =   2.34000
 
 
 
 
:POS002: ATOM   -2 POSITION = 0.00000 0.00000 0.00000  MULTIPLICITY = 1  ZZ= 29.000  Cu
 
       LMMAX  6
       LM=   0 0  2 0  4 0  4 4  6 0  6 4
 
:CHA002: TOTAL VALENCE CHARGE INSIDE SPHERE   2 =    15.115793
:PCS002: PARTIAL CHARGES SPHERE =  2 S,P,D,F,PZ,PXY,,D-Z2,D-XY,D-X2Y2,D-XZ,YZ
:QTL002: 0.1981 6.1663 8.7256 0.0212 2.0263 4.1402 0.0000 1.8247 1.8439 1.4111 3.6456 0.0000
        Q-s-low E-s-low   Q-p-low E-p-low   Q-d-low E-d-low   Q-f-low E-f-low
:EPL002:  0.0288 -0.7048    6.0028 -4.4459    0.0449 -0.6173    0.0036 -0.6200
        Q-s-hi  E-s-hi    Q-p-hi  E-p-hi    Q-d-hi  E-d-hi    Q-f-hi  E-f-hi
:EPH002:  0.1686  0.2858    0.1638  0.3439    8.6805  0.4964    0.0175  0.4271
:VZZ002: EFG INSIDE SPHERE   2 =    -9.907392      UP TO R =   1.88000
 
 
 
 
:POS003: ATOM   -3 POSITION = 0.50000 0.00000 0.00000  MULTIPLICITY = 2  ZZ=  8.000  O
 
       LMMAX 10
       LM=   0 0  2 0  2 2  4 0  4 2  4 4  6 0  6 2  6 4  6 6
 
:CHA003: TOTAL VALENCE CHARGE INSIDE SPHERE   3 =     5.439653
:PCS003: PARTIAL CHARGES SPHERE =  3 S,P,D,F,PX,PY,PZ,D-Z2,D-X2Y2,D-XY,D-XZ,D-YZ
:QTL003: 1.6426 3.7705 0.0208 0.0044 1.1593 1.3205 1.2905 0.0028 0.0060 0.0052 0.0050 0.0018
        Q-s-low E-s-low   Q-p-low E-p-low   Q-d-low E-d-low   Q-f-low E-f-low
:EPL003:  1.6064 -0.6691    0.0372 -0.5195    0.0029 -0.9096    0.0000 10.0000
        Q-s-hi  E-s-hi    Q-p-hi  E-p-hi    Q-d-hi  E-d-hi    Q-f-hi  E-f-hi
:EPH003:  0.0363  0.4857    3.7330  0.3922    0.0178  0.4881    0.0038  0.4416
 
                      VXX         VYY         VZZ       UP TO R
 
:VZZ003:             8.71021    -5.59771    -3.11251       1.670
 
 
 
 
:POS004: ATOM   -4 POSITION = 0.00000 0.00000 0.81770  MULTIPLICITY = 2  ZZ=  8.000  O
 
       LMMAX 10
       LM=   0 0  1 0  2 0  3 0  4 0  4 4  5 0  5 4  6 0  6 4
 
:CHA004: TOTAL VALENCE CHARGE INSIDE SPHERE   4 =     5.326819
:PCS004: PARTIAL CHARGES SPHERE =  4 S,P,D,F,PZ,PXY,,D-Z2,D-XY,D-X2Y2,D-XZ,YZ
:QTL004: 1.6428 3.6770 0.0061 0.0012 1.2552 2.4213 0.0000 0.0033 0.0009 0.0000 0.0018 0.0000
        Q-s-low E-s-low   Q-p-low E-p-low   Q-d-low E-d-low   Q-f-low E-f-low
:EPL004:  1.6283 -0.5663    0.0421 -0.4686    0.0030 -0.5307    0.0000 10.0000
        Q-s-hi  E-s-hi    Q-p-hi  E-p-hi    Q-d-hi  E-d-hi    Q-f-hi  E-f-hi
:EPH004:  0.0146  0.4552    3.6347  0.4787    0.0034  0.4747    0.0000 10.0000
:VZZ004: EFG INSIDE SPHERE   4 =    -2.450924      UP TO R =   1.67000
 
:CHA  : TOTAL VALENCE CHARGE INSIDE UNIT CELL =      63.000001
 
:SUM  : SUM OF EIGENVALUES =         -28.725857279
 

        1.ATOM      La                   14 CORE STATES
       CORE-FORCE in mRy/a.u. = |F|      Fx             Fy             Fz
:FCO001:   1.ATOM         84.047          0.000          0.000         84.047

:1S 001: 1S               -2844.616708642 Ry
:2S 001: 2S                -451.606583623 Ry
:2PP001: 2P*               -425.820168322 Ry
:2P 001: 2P                -395.455130066 Ry
:3S 001: 3S                 -95.615769098 Ry
:3PP001: 3P*                -84.749663146 Ry
:3P 001: 3P                 -78.831234329 Ry
:3DD001: 3D*                -59.809135507 Ry
:3D 001: 3D                 -58.543018282 Ry
:4S 001: 4S                 -18.313310193 Ry
:4PP001: 4P*                -14.315617400 Ry
:4P 001: 4P                 -13.056794398 Ry
:4DD001: 4D*                 -6.505885717 Ry
:4D 001: 4D                  -6.287390328 Ry

        2.ATOM      Cu                    5 CORE STATES
:1S 002: 1S                -649.538540851 Ry
:2S 002: 2S                 -77.254855958 Ry
:2PP002: 2P*                -67.569716421 Ry
:2P 002: 2P                 -66.063711202 Ry
:3S 002: 3S                  -7.599955828 Ry

        3.ATOM      O                     1 CORE STATES
:1S 003: 1S                 -36.444555753 Ry

        4.ATOM      O                     1 CORE STATES
       CORE-FORCE in mRy/a.u. = |F|      Fx             Fy             Fz
:FCO004:   4.ATOM         59.945          0.000          0.000        -59.945

:1S 004: 1S                 -36.359983330 Ry

       DENSITY AT NUCLEUS
        JATOM    VALENCE       SEMI-CORE            CORE           TOTAL

:RTO001:   1      492.815571        0.000000   537553.986289   538046.801859
:RTO002:   2        6.953597        0.000000    22630.643012    22637.596609
:RTO003:   3       15.167279        0.000000      303.883449      319.050728
:RTO004:   4       15.193480        0.000000      303.871227      319.064707
     
       CHARGES OF NEW CHARGE DENSITY
:NTO  : TOTAL   INTERSTITIAL CHARGE=   11.6307553
:NTO001: TOTAL   CHARGE IN SPHERE  1 =       53.3575200
:NTO002: TOTAL   CHARGE IN SPHERE  2 =       27.1129146
:NTO003: TOTAL   CHARGE IN SPHERE  3 =        7.4396532
:NTO004: TOTAL   CHARGE IN SPHERE  4 =        7.3268199

:NEC01: NUCLEAR AND ELECTRONIC CHARGE    175.00000   174.99166     1.00005
     
       CHARGES OF OLD CHARGE DENSITY
:OTO  : TOTAL   INTERSTITIAL CHARGE=   12.0899279
:OTO001: TOTAL   CHARGE IN SPHERE  1 =       53.3705098
:OTO002: TOTAL   CHARGE IN SPHERE  2 =       27.0826501
:OTO003: TOTAL   CHARGE IN SPHERE  3 =        7.3105864
:OTO004: TOTAL   CHARGE IN SPHERE  4 =        7.2326147

:NEC02: NUCLEAR AND ELECTRONIC CHARGE    175.00000   175.00000     1.00000
     
       CONVERGENCE TEST
:DTO001: TOTAL   DIFFERENCE CHARGE**2 IN SPHERE  1 =  0.0840287
:DTO002: TOTAL   DIFFERENCE CHARGE**2 IN SPHERE  2 =  0.1606575
:DTO003: TOTAL   DIFFERENCE CHARGE**2 IN SPHERE  3 =  0.1704875
:DTO004: TOTAL   DIFFERENCE CHARGE**2 IN SPHERE  4 =  0.1924896

:DIS  :  CHARGE DISTANCE       ( 0.1924896 for atom    4 spin 1)      0.1506670
:BIG check (qbig,qrms,qtot)    0.642D-01   0.111D+00   0.151D+00
 
******************************************************
* MULTISECANT MIXING OPTIONS                         *
* NFL Limit   0.100000                               *
* Diag Parm   0.000500                               *
* Standard Increase/Decrease Bounds                  *
* Plane Wave SQRT Dynamic Rescaling                  *
* Max Number of Memory Steps    8                    *
******************************************************
 
:PLANE:  INTERSTITIAL TOTAL     25.53987 DISTAN  0.160D+01 % 
:CHARG:  CLM CHARGE   TOTAL      5.19667 DISTAN  0.126D+01 % 
:REDuction and DMIX in Broyd:    0.8398    0.1680
:INFO :  Dynamic rescale   0.166D+01  0.100D+01  0.500D+01
:INFO :  Number of Memory Steps    3 Skipping    0
:INFO :  Bounds         0.597D-01  0.200D+00  0.144D+00  0.597D-01
:DIRM :  MEMORY 3/8 RESCALE  1.664 RED  0.904 PRED  0.979 NEXT  0.697
:INFO :  DMIXM and Projections     0.597D-01  0.697D+00
:DIRP :  |BROYD|= 0.926D+00 |PRATT|= 0.146D+00 ANGLE=   0.2 DEGREES
:DIRB :  |BROYD|= 0.138D+01 |PRATT|= 0.219D+00 ANGLE=   1.7 DEGREES
       MSEC1 MIXING SCHEME WITH 0.060
     
       CHARGES OF MIXED CHARGE DENSITY
:CTO  : TOTAL   INTERSTITIAL CHARGE=   11.9133023
:CTO001: TOTAL   CHARGE IN SPHERE  1 =       53.3652480
:CTO002: TOTAL   CHARGE IN SPHERE  2 =       27.0928458
:CTO003: TOTAL   CHARGE IN SPHERE  3 =        7.3614638
:CTO004: TOTAL   CHARGE IN SPHERE  4 =        7.2702142

:NEC03: NUCLEAR AND ELECTRONIC CHARGE    175.00000   175.00000     1.00000


:ENE  : ********** TOTAL ENERGY IN Ry =       -37903.50062770

       TOTAL FORCE IN mRy/a.u. = |F|     Fx             Fy             Fz        with/without FOR in case.in2
:FOR001:   1.ATOM          9.325          0.000          0.000         -9.325 partial forces
:FOR002:   2.ATOM          0.000          0.000          0.000          0.000 partial forces
:FOR003:   3.ATOM          0.000          0.000          0.000          0.000 partial forces
:FOR004:   4.ATOM        203.091          0.000          0.000        203.091 partial forces

       TOTAL FORCE WITH RESPECT TO GLOBAL CARTESIAN COORDINATES:
:FCA001:   1.ATOM                         0.000          0.000         -9.325 partial forces
:FCA002:   2.ATOM                         0.000          0.000          0.000 partial forces
:FCA003:   3.ATOM                         0.000          0.000          0.000 partial forces
:FCA004:   4.ATOM                         0.000          0.000        203.091 partial forces

       TOTAL FORCE WITH RESPECT TO THE GLOBAL COORDINATE SYSTEM:
:FGL001:   1.ATOM                 0.000000000     0.000000000    -9.325000000 partial forces
:FGL002:   2.ATOM                 0.000000000     0.000000000     0.000000000 partial forces
:FGL003:   3.ATOM                 0.000000000     0.000000000     0.000000000 partial forces
:FGL004:   4.ATOM                 0.000000000     0.000000000   203.091000000 partial forces


            ---------
:ITE005:  5. ITERATION
            ---------

:NATO :    4 INDEPENDEND AND    7 TOTAL ATOMS IN UNITCELL
       SUBSTANCE: La2CuO4                                                     

       LATTICE                      = B   
:POT  : POTENTIAL OPTION   13
:LAT  : LATTICE CONSTANTS=  7.15564  7.15564 24.80832    1.571    1.571    1.571
:VOL  : UNIT CELL VOLUME =     635.13208
       MODE OF CALCULATION IS       = RELA
       NON-SPINPOLARIZED CALCULATION
:IFFT  : FFT-parameters:   64   64  240 Factor: 2.00
[...]


            ---------
:ITE012: 12. ITERATION
            ---------

:NATO :    4 INDEPENDEND AND    7 TOTAL ATOMS IN UNITCELL
       SUBSTANCE: La2CuO4                                                     

       LATTICE                      = B   
:POT  : POTENTIAL OPTION   13
:LAT  : LATTICE CONSTANTS=  7.15564  7.15564 24.80832    1.571    1.571    1.571
:VOL  : UNIT CELL VOLUME =     635.13208
       MODE OF CALCULATION IS       = RELA
       NON-SPINPOLARIZED CALCULATION
:IFFT  : FFT-parameters:   64   64  240 Factor: 2.00
       ATOMNUMBER=  1 La         VCOUL-ZERO =  0.16862E+00
:EFG001:                        EFG         =   -17.02816   *10**21  V / m**2
                               V20  TOT/SRF=   -14.74682    -0.05341
                               V22  TOT/SRF=     0.00000     0.00000
                               V22M TOT/SRF=     0.00000     0.00000
                               V21  TOT/SRF=     0.00000     0.00000
                               V21M TOT/SRF=     0.00000     0.00000

              8.51408    0.00000    0.00000        8.51408    0.00000    0.00000
              0.00000    8.51408    0.00000        0.00000    8.51408    0.00000
              0.00000    0.00000  -17.02816        0.00000    0.00000  -17.02816

         MAIN DIRECTIONS OF THE EFG   1.0000  0.0000  0.0000
                                      0.0000  1.0000  0.0000
                                      0.0000  0.0000  1.0000
:ANG001:  ANGLE WITH OLD X-AXIS =         0.0

:ETA001:                         ASYMM. ETA =     0.00000


       ATOMNUMBER=  2 Cu         VCOUL-ZERO =  0.41317E+00
:EFG002:                        EFG         =    -6.91214   *10**21  V / m**2
                               V20  TOT/SRF=    -5.98609    -0.16451
                               V22  TOT/SRF=     0.00000     0.00000
                               V22M TOT/SRF=     0.00000     0.00000
                               V21  TOT/SRF=     0.00000     0.00000
                               V21M TOT/SRF=     0.00000     0.00000

              3.45607    0.00000    0.00000        3.45607    0.00000    0.00000
              0.00000    3.45607    0.00000        0.00000    3.45607    0.00000
              0.00000    0.00000   -6.91214        0.00000    0.00000   -6.91214

         MAIN DIRECTIONS OF THE EFG   1.0000  0.0000  0.0000
                                      0.0000  1.0000  0.0000
                                      0.0000  0.0000  1.0000
:ANG002:  ANGLE WITH OLD X-AXIS =         0.0

:ETA002:                         ASYMM. ETA =     0.00000


       ATOMNUMBER=  3 O          VCOUL-ZERO =  0.69800E+00
:EFG003:                        EFG         =     8.63277   *10**21  V / m**2
                               V20  TOT/SRF=    -2.52215    -0.29528
                               V22  TOT/SRF=     7.17661     0.51899
                               V22M TOT/SRF=     0.00000     0.00000
                               V21  TOT/SRF=     0.00000     0.00000
                               V21M TOT/SRF=     0.00000     0.00000

              8.63277    0.00000    0.00000        8.63277    0.00000    0.00000
              0.00000   -5.72045    0.00000        0.00000   -5.72045    0.00000
              0.00000    0.00000   -2.91233        0.00000    0.00000   -2.91233

         MAIN DIRECTIONS OF THE EFG   1.0000  0.0000  0.0000
                                      0.0000  1.0000  0.0000
                                      0.0000  0.0000  1.0000
:ANG003:  ANGLE WITH OLD X-AXIS =         0.0

:ETA003:                         ASYMM. ETA =     0.32529


       ATOMNUMBER=  4 O          VCOUL-ZERO =  0.80769E+00
:EFG004:                        EFG         =    -2.37593   *10**21  V / m**2
                               V20  TOT/SRF=    -2.05762     0.15057
                               V22  TOT/SRF=     0.00000     0.00000
                               V22M TOT/SRF=     0.00000     0.00000
                               V21  TOT/SRF=     0.00000     0.00000
                               V21M TOT/SRF=     0.00000     0.00000

              1.18797    0.00000    0.00000        1.18797    0.00000    0.00000
              0.00000    1.18797    0.00000        0.00000    1.18797    0.00000
              0.00000    0.00000   -2.37593        0.00000    0.00000   -2.37593

         MAIN DIRECTIONS OF THE EFG   1.0000  0.0000  0.0000
                                      0.0000  1.0000  0.0000
                                      0.0000  0.0000  1.0000
:ANG004:  ANGLE WITH OLD X-AXIS =         0.0

:ETA004:                         ASYMM. ETA =     0.00000


       HELLMAN-FEYMAN-FORCE IN mRy/a.u. = |F|  Fx       Fy             Fz
:FHF001:   1.ATOM        491.425          0.000          0.000       -491.425

       HELLMAN-FEYMAN-FORCE IN mRy/a.u. = |F|  Fx       Fy             Fz
:FHF002:   2.ATOM          0.000          0.000          0.000          0.000

       HELLMAN-FEYMAN-FORCE IN mRy/a.u. = |F|  Fx       Fy             Fz
:FHF003:   3.ATOM          0.000          0.000          0.000          0.000

       HELLMAN-FEYMAN-FORCE IN mRy/a.u. = |F|  Fx       Fy             Fz
:FHF004:   4.ATOM          6.972          0.000          0.000          6.972

:FIT001: SIGMA OF V-XC FIT FOR ATOM  1  0.3069946E-02
:FIT001: SIGMA OF V-XC FIT FOR ATOM  1  0.3069946E-02
:FIT002: SIGMA OF V-XC FIT FOR ATOM  2  0.1086862E-01
:FIT002: SIGMA OF V-XC FIT FOR ATOM  2  0.1086862E-01
:FIT003: SIGMA OF V-XC FIT FOR ATOM  3  0.6884383E-03
:FIT003: SIGMA OF V-XC FIT FOR ATOM  3  0.6884383E-03
:FIT004: SIGMA OF V-XC FIT FOR ATOM  4  0.7224108E-04
:FIT004: SIGMA OF V-XC FIT FOR ATOM  4  0.7224108E-04
:DEN  : DENSITY INTEGRALS =        -14773.58858943   (Ry)
       ELS_POTENTIAL_AT Z=0 and Z=0.5:  -0.48846  -0.48846
       ELS_POTENTIAL_AT Y=0 and Y=0.5:  -1.46612  -1.46612
:VZERO:v0,v0c,v0x  -1.44186  -0.48846  -0.95340 v5,v5c,v5x  -1.44186  -0.48846  -0.95340
:VZERY:v0,v0c,v0x  -2.44886  -1.46612  -0.98274 v5,v5c,v5x  -2.44886  -1.46612  -0.98274
:VZERX:v0,v0c,v0x  -0.81268   0.00000  -0.81268 v5,v5c,v5x  -0.81268   0.00000  -0.81268

          ATOMIC SPHERE DEPENDENT PARAMETERS FOR ATOM  La        
:e__0001: OVERALL ENERGY PARAMETER IS    0.5250
          OVERALL BASIS SET ON ATOM IS LAPW
:E0_0001: E( 0)=   -1.6390   E(BOTTOM)=   -2.340   E(TOP)=   -0.938
             APW+lo
:E0_0001: E( 0)=    0.5250
             LOCAL ORBITAL
:E1_0001: E( 1)=   -0.2730   E(BOTTOM)=   -1.286   E(TOP)=    0.740
             APW+lo
:E1_0001: E( 1)=    0.5250
             LOCAL ORBITAL
:E2_0001: E( 2)=    0.5250   E(BOTTOM)=    0.370   E(TOP)= -200.000
             APW+lo

          ATOMIC SPHERE DEPENDENT PARAMETERS FOR ATOM  Cu        
:e__0002: OVERALL ENERGY PARAMETER IS    0.5250
          OVERALL BASIS SET ON ATOM IS LAPW
:E1_0002: E( 1)=    0.5250
             APW+lo
:E1_0002: E( 1)=   -4.4430   E(BOTTOM)=   -4.557   E(TOP)=   -4.329
             LOCAL ORBITAL
:E2_0002: E( 2)=    0.4900   E(BOTTOM)=    0.070   E(TOP)=    0.910
             APW+lo
:E0_0002: E( 0)=    0.5250
             APW+lo

          ATOMIC SPHERE DEPENDENT PARAMETERS FOR ATOM  O         
:e__0003: OVERALL ENERGY PARAMETER IS    0.5250
          OVERALL BASIS SET ON ATOM IS LAPW
:E0_0003: E( 0)=   -0.5410   E(BOTTOM)=   -1.710   E(TOP)=    0.628
             APW+lo
:E0_0003: E( 0)=    0.5250
             LOCAL ORBITAL
:E1_0003: E( 1)=    0.5250
             APW+lo

          ATOMIC SPHERE DEPENDENT PARAMETERS FOR ATOM  O         
:e__0004: OVERALL ENERGY PARAMETER IS    0.5250
          OVERALL BASIS SET ON ATOM IS LAPW
:E0_0004: E( 0)=   -0.4640   E(BOTTOM)=   -1.624   E(TOP)=    0.696
             APW+lo
:E0_0004: E( 0)=    0.5250
             LOCAL ORBITAL
:E1_0004: E( 1)=    0.5250
             APW+lo

       K=   0.00000   0.00000   0.00000            1
:RKM  : MATRIX SIZE  823LOs:  58  RKM= 6.87  WEIGHT= 1.00  PGR:    
       EIGENVALUES ARE:
:EIG00001:      -4.4337222   -4.4337222   -4.3868741   -1.6291053   -1.6164598
:EIG00006:      -0.7397787   -0.6039446   -0.6002376   -0.5666072   -0.4114373
:EIG00011:      -0.4114373   -0.4067377   -0.4067377   -0.3778486   -0.3184395
:EIG00016:       0.3152768    0.3152768    0.3588763    0.4122741    0.4233513
:EIG00021:       0.4973906    0.4973906    0.5002697    0.5099695    0.5099695
:EIG00026:       0.5397406    0.5397406    0.5672434    0.5672434    0.5746647
:EIG00031:       0.6008120    0.6146572    0.8247851    0.8737679    0.9063138
:EIG00036:       0.9427056    0.9446782    0.9446782    0.9541500    0.9567371
:EIG00041:       0.9580942    0.9621971    0.9621971    0.9655755    0.9655755
:EIG00046:       0.9817227    0.9817227    0.9817702    1.0153975    1.0748343
 
:EIG00051:       1.0835037    1.0944377    1.0997542    1.0997542    1.1386627
:EIG00056:       1.2613208    1.2613208    1.2742247    1.6078531    1.6544391
:EIG00061:       1.6775711    1.7173121    1.8388834    1.8388834    1.8709788
:EIG00066:       1.8709788    1.9421724    2.0794236    2.0794236    2.0993358
:EIG00071:       2.2781265    2.3463171    2.3584132    2.3584132    2.3673389
:EIG00076:       2.4609588    2.4766590    2.5608437    2.5608437    2.5858694
:EIG00081:       2.6347864    2.6347864    2.7027483    2.7027483    2.7768790
:EIG00086:       2.7869562    2.8354625    2.8354625    2.9031072    2.9773701
:EIG00091:       2.9846451    2.9846451
       ********************************************************

:KPT   :      NUMBER OF K-POINTS:     102
:GMA  : POTENTIAL AND CHARGE CUT-OFF  14.00 Ry**.5
         Bandranges (emin - emax) and occupancy:
:BAN00022:  22    0.444006    0.497391  2.00000000
:BAN00023:  23    0.449808    0.501604  2.00000000
:BAN00024:  24    0.463633    0.514520  2.00000000
:BAN00025:  25    0.480455    0.557739  2.00000000
:BAN00026:  26    0.496539    0.558827  2.00000000
:BAN00027:  27    0.520119    0.577009  2.00000000
:BAN00028:  28    0.546730    0.628315  2.00000000
:BAN00029:  29    0.552911    0.638626  2.00000000
:BAN00030:  30    0.567437    0.641422  2.00000000
:BAN00031:  31    0.574354    0.684513  2.00000000
:BAN00032:  32    0.614657    0.874436  1.00000000
:BAN00033:  33    0.775469    0.926721  0.00000000
:BAN00034:  34    0.873768    0.931817  0.00000000
:BAN00035:  35    0.902530    0.934557  0.00000000
:BAN00036:  36    0.931810    0.948957  0.00000000
:BAN00037:  37    0.934061    0.951749  0.00000000
        Energy to separate low and high energystates:    0.09390


:NOE  : NUMBER OF ELECTRONS          =  63.000

:FER  : F E R M I - ENERGY(TETRAH.M.)=   0.72504
:GMA  : POTENTIAL AND CHARGE CUT-OFF  14.00 Ry**.5
 
 
 
 
:POS001: ATOM   -1 POSITION = 0.00000 0.00000 0.63866  MULTIPLICITY = 2  ZZ= 57.000  La
 
       LMMAX 10
       LM=   0 0  1 0  2 0  3 0  4 0  4 4  5 0  5 4  6 0  6 4
 
:CHA001: TOTAL VALENCE CHARGE INSIDE SPHERE   1 =     7.387151
:PCS001: PARTIAL CHARGES SPHERE =  1 S,P,D,F,PZ,PXY,,D-Z2,D-XY,D-X2Y2,D-XZ,YZ
:QTL001: 1.8862 5.0290 0.3204 0.1467 1.6877 3.3412 0.0000 0.0944 0.0605 0.0443 0.1216 0.0000
        Q-s-low E-s-low   Q-p-low E-p-low   Q-d-low E-d-low   Q-f-low E-f-low
:EPL001:  1.8445 -1.6090    4.7563 -0.4187    0.0120 -0.5486    0.0039 -0.5302
        Q-s-hi  E-s-hi    Q-p-hi  E-p-hi    Q-d-hi  E-d-hi    Q-f-hi  E-f-hi
:EPH001:  0.0418  0.4180    0.2728  0.4639    0.3082  0.4600    0.1427  0.5160
:VZZ001: EFG INSIDE SPHERE   1 =   -16.987808      UP TO R =   2.34000
 
 
 
 
:POS002: ATOM   -2 POSITION = 0.00000 0.00000 0.00000  MULTIPLICITY = 1  ZZ= 29.000  Cu
 
       LMMAX  6
       LM=   0 0  2 0  4 0  4 4  6 0  6 4
 
:CHA002: TOTAL VALENCE CHARGE INSIDE SPHERE   2 =    15.082638
:PCS002: PARTIAL CHARGES SPHERE =  2 S,P,D,F,PZ,PXY,,D-Z2,D-XY,D-X2Y2,D-XZ,YZ
:QTL002: 0.2010 6.1684 8.6870 0.0215 2.0264 4.1420 0.0000 1.8089 1.8406 1.4108 3.6263 0.0000
        Q-s-low E-s-low   Q-p-low E-p-low   Q-d-low E-d-low   Q-f-low E-f-low
:EPL002:  0.0297 -0.6686    6.0027 -4.3982    0.0452 -0.5864    0.0037 -0.5889
        Q-s-hi  E-s-hi    Q-p-hi  E-p-hi    Q-d-hi  E-d-hi    Q-f-hi  E-f-hi
:EPH002:  0.1712  0.3156    0.1659  0.3716    8.6416  0.5376    0.0176  0.4586
:VZZ002: EFG INSIDE SPHERE   2 =    -6.730799      UP TO R =   1.88000
 
 
 
 
:POS003: ATOM   -3 POSITION = 0.50000 0.00000 0.00000  MULTIPLICITY = 2  ZZ=  8.000  O
 
       LMMAX 10
       LM=   0 0  2 0  2 2  4 0  4 2  4 4  6 0  6 2  6 4  6 6
 
:CHA003: TOTAL VALENCE CHARGE INSIDE SPHERE   3 =     5.397548
:PCS003: PARTIAL CHARGES SPHERE =  3 S,P,D,F,PX,PY,PZ,D-Z2,D-X2Y2,D-XY,D-XZ,D-YZ
:QTL003: 1.6374 3.7328 0.0214 0.0046 1.1560 1.3053 1.2717 0.0029 0.0060 0.0052 0.0053 0.0018
        Q-s-low E-s-low   Q-p-low E-p-low   Q-d-low E-d-low   Q-f-low E-f-low
:EPL003:  1.6004 -0.6327    0.0350 -0.5152    0.0031 -0.8892    0.0000 10.0000
        Q-s-hi  E-s-hi    Q-p-hi  E-p-hi    Q-d-hi  E-d-hi    Q-f-hi  E-f-hi
:EPH003:  0.0371  0.5167    3.6980  0.4236    0.0185  0.5248    0.0039  0.4778
 
                      VXX         VYY         VZZ       UP TO R
 
:VZZ003:             7.91495    -5.36658    -2.54838       1.670
 
 
 
 
:POS004: ATOM   -4 POSITION = 0.00000 0.00000 0.81770  MULTIPLICITY = 2  ZZ=  8.000  O
 
       LMMAX 10
       LM=   0 0  1 0  2 0  3 0  4 0  4 4  5 0  5 4  6 0  6 4
 
:CHA004: TOTAL VALENCE CHARGE INSIDE SPHERE   4 =     5.301867
:PCS004: PARTIAL CHARGES SPHERE =  4 S,P,D,F,PZ,PXY,,D-Z2,D-XY,D-X2Y2,D-XZ,YZ
:QTL004: 1.6396 3.6549 0.0061 0.0012 1.2497 2.4052 0.0000 0.0033 0.0009 0.0000 0.0018 0.0000
        Q-s-low E-s-low   Q-p-low E-p-low   Q-d-low E-d-low   Q-f-low E-f-low
:EPL004:  1.6242 -0.5380    0.0405 -0.4521    0.0028 -0.5182    0.0000 10.0000
        Q-s-hi  E-s-hi    Q-p-hi  E-p-hi    Q-d-hi  E-d-hi    Q-f-hi  E-f-hi
:EPH004:  0.0154  0.4849    3.6144  0.5017    0.0034  0.5067    0.0000 10.0000
:VZZ004: EFG INSIDE SPHERE   4 =    -2.600042      UP TO R =   1.67000
 
:CHA  : TOTAL VALENCE CHARGE INSIDE UNIT CELL =      63.000000
 
:SUM  : SUM OF EIGENVALUES =         -27.017401385
 

        1.ATOM      La                   14 CORE STATES
       CORE-FORCE in mRy/a.u. = |F|      Fx             Fy             Fz
:FCO001:   1.ATOM        467.717          0.000          0.000        467.717

:1S 001: 1S               -2844.580440089 Ry
:2S 001: 2S                -451.565780009 Ry
:2PP001: 2P*               -425.779940676 Ry
:2P 001: 2P                -395.414645369 Ry
:3S 001: 3S                 -95.570763790 Ry
:3PP001: 3P*                -84.704796324 Ry
:3P 001: 3P                 -78.786303818 Ry
:3DD001: 3D*                -59.764527957 Ry
:3D 001: 3D                 -58.498367513 Ry
:4S 001: 4S                 -18.275653814 Ry
:4PP001: 4P*                -14.278750723 Ry
:4P 001: 4P                 -13.020873329 Ry
:4DD001: 4D*                 -6.472218229 Ry
:4D 001: 4D                  -6.254063155 Ry

        2.ATOM      Cu                    5 CORE STATES
:1S 002: 1S                -649.502686422 Ry
:2S 002: 2S                 -77.201448055 Ry
:2PP002: 2P*                -67.518023605 Ry
:2P 002: 2P                 -66.011815427 Ry
:3S 002: 3S                  -7.550685176 Ry

        3.ATOM      O                     1 CORE STATES
:1S 003: 1S                 -36.468161066 Ry

        4.ATOM      O                     1 CORE STATES
       CORE-FORCE in mRy/a.u. = |F|      Fx             Fy             Fz
:FCO004:   4.ATOM          6.251          0.000          0.000         -6.251

:1S 004: 1S                 -36.423878597 Ry

       DENSITY AT NUCLEUS
        JATOM    VALENCE       SEMI-CORE            CORE           TOTAL

:RTO001:   1      491.302726        0.000000   537553.481881   538044.784606
:RTO002:   2        7.090251        0.000000    22630.615658    22637.705909
:RTO003:   3       15.102720        0.000000      304.060563      319.163283
:RTO004:   4       15.208675        0.000000      304.074749      319.283424
     
       CHARGES OF NEW CHARGE DENSITY
:NTO  : TOTAL   INTERSTITIAL CHARGE=   11.7442184
:NTO001: TOTAL   CHARGE IN SPHERE  1 =       53.3843689
:NTO002: TOTAL   CHARGE IN SPHERE  2 =       27.0797193
:NTO003: TOTAL   CHARGE IN SPHERE  3 =        7.3975490
:NTO004: TOTAL   CHARGE IN SPHERE  4 =        7.3018642

:NEC01: NUCLEAR AND ELECTRONIC CHARGE    175.00000   174.99150     1.00005
     
       CHARGES OF OLD CHARGE DENSITY
:OTO  : TOTAL   INTERSTITIAL CHARGE=   11.7529899
:OTO001: TOTAL   CHARGE IN SPHERE  1 =       53.3843120
:OTO002: TOTAL   CHARGE IN SPHERE  2 =       27.0797266
:OTO003: TOTAL   CHARGE IN SPHERE  3 =        7.3976069
:OTO004: TOTAL   CHARGE IN SPHERE  4 =        7.3017229

:NEC02: NUCLEAR AND ELECTRONIC CHARGE    175.00000   175.00000     1.00000
     
       CONVERGENCE TEST
:DTO001: TOTAL   DIFFERENCE CHARGE**2 IN SPHERE  1 =  0.0002183
:DTO002: TOTAL   DIFFERENCE CHARGE**2 IN SPHERE  2 =  0.0001910
:DTO003: TOTAL   DIFFERENCE CHARGE**2 IN SPHERE  3 =  0.0002519
:DTO004: TOTAL   DIFFERENCE CHARGE**2 IN SPHERE  4 =  0.0001570

:DIS  :  CHARGE DISTANCE       ( 0.0002519 for atom    3 spin 1)      0.0002065
:BIG check (qbig,qrms,qtot)    0.840D-04   0.148D-03   0.207D-03
 
******************************************************
* MULTISECANT MIXING OPTIONS                         *
* NFL Limit   0.100000                               *
* Diag Parm   0.000500                               *
* Standard Increase/Decrease Bounds                  *
* Plane Wave SQRT Dynamic Rescaling                  *
* Max Number of Memory Steps    8                    *
******************************************************
 
:PLANE:  INTERSTITIAL TOTAL     30.58400 DISTAN  0.118D-02 % 
:CHARG:  CLM CHARGE   TOTAL      5.19933 DISTAN  0.199D-02 % 
:REDuction and DMIX in Broyd:    1.0996    0.2000
:INFO :  Dynamic rescale   0.170D+01  0.100D+01  0.500D+01
:INFO :  Number of Memory Steps    8 Skipping    3
:INFO :  Bounds         0.400D+00  0.200D+00  0.198D+00  0.198D+00
:DIRM :  MEMORY 8/8 RESCALE  1.703 RED  0.346 PRED  0.393 NEXT  0.505
:INFO :  DMIXM and Projections     0.198D+00  0.505D+00
:DIRP :  |BROYD|= 0.122D-02 |PRATT|= 0.438D-03 ANGLE=   4.0 DEGREES
:DIRB :  |BROYD|= 0.259D-02 |PRATT|= 0.966D-03 ANGLE=   9.5 DEGREES
       MSEC1 MIXING SCHEME WITH 0.198
     
       CHARGES OF MIXED CHARGE DENSITY
:CTO  : TOTAL   INTERSTITIAL CHARGE=   11.7528369
:CTO001: TOTAL   CHARGE IN SPHERE  1 =       53.3843710
:CTO002: TOTAL   CHARGE IN SPHERE  2 =       27.0797393
:CTO003: TOTAL   CHARGE IN SPHERE  3 =        7.3975575
:CTO004: TOTAL   CHARGE IN SPHERE  4 =        7.3017834

:NEC03: NUCLEAR AND ELECTRONIC CHARGE    175.00000   175.00000     1.00000


:ENE  : ********** TOTAL ENERGY IN Ry =       -37903.48931702

       TOTAL FORCE IN mRy/a.u. = |F|     Fx             Fy             Fz        with/without FOR in case.in2
:FOR001:   1.ATOM         23.708          0.000          0.000        -23.708 partial forces
:FOR002:   2.ATOM          0.000          0.000          0.000          0.000 partial forces
:FOR003:   3.ATOM          0.000          0.000          0.000          0.000 partial forces
:FOR004:   4.ATOM          0.721          0.000          0.000          0.721 partial forces

       TOTAL FORCE WITH RESPECT TO GLOBAL CARTESIAN COORDINATES:
:FCA001:   1.ATOM                         0.000          0.000        -23.708 partial forces
:FCA002:   2.ATOM                         0.000          0.000          0.000 partial forces
:FCA003:   3.ATOM                         0.000          0.000          0.000 partial forces
:FCA004:   4.ATOM                         0.000          0.000          0.721 partial forces

       TOTAL FORCE WITH RESPECT TO THE GLOBAL COORDINATE SYSTEM:
:FGL001:   1.ATOM                 0.000000000     0.000000000   -23.708000000 partial forces
:FGL002:   2.ATOM                 0.000000000     0.000000000     0.000000000 partial forces
:FGL003:   3.ATOM                 0.000000000     0.000000000     0.000000000 partial forces
:FGL004:   4.ATOM                 0.000000000     0.000000000     0.721000000 partial forces
